 Entering Gaussian System, Link 0=g09
 Initial command:
 /usr/local/research/Gaussian09/g09-revD.01/g09/l1.exe "/scratch/37954.heisenberg.scps.vuw.ac.nz/Gau-13430.inp" -scrdir="/scratch/37954.heisenberg.scps.vuw.ac.nz/"
 Entering Link 1 = /usr/local/research/Gaussian09/g09-revD.01/g09/l1.exe PID=     13432.

 Copyright (c) 1988,1990,1992,1993,1995,1998,2003,2009,2013,
            Gaussian, Inc.  All Rights Reserved.

 This is part of the Gaussian(R) 09 program.  It is based on
 the Gaussian(R) 03 system (copyright 2003, Gaussian, Inc.),
 the Gaussian(R) 98 system (copyright 1998, Gaussian, Inc.),
 the Gaussian(R) 94 system (copyright 1995, Gaussian, Inc.),
 the Gaussian 92(TM) system (copyright 1992, Gaussian, Inc.),
 the Gaussian 90(TM) system (copyright 1990, Gaussian, Inc.),
 the Gaussian 88(TM) system (copyright 1988, Gaussian, Inc.),
 the Gaussian 86(TM) system (copyright 1986, Carnegie Mellon
 University), and the Gaussian 82(TM) system (copyright 1983,
 Carnegie Mellon University). Gaussian is a federally registered
 trademark of Gaussian, Inc.

 This software contains proprietary and confidential information,
 including trade secrets, belonging to Gaussian, Inc.

 This software is provided under written license and may be
 used, copied, transmitted, or stored only in accord with that
 written license.

 The following legend is applicable only to US Government
 contracts under FAR:

                    RESTRICTED RIGHTS LEGEND

 Use, reproduction and disclosure by the US Government is
 subject to restrictions as set forth in subparagraphs (a)
 and (c) of the Commercial Computer Software - Restricted
 Rights clause in FAR 52.227-19.

 Gaussian, Inc.
 340 Quinnipiac St., Bldg. 40, Wallingford CT 06492


 ---------------------------------------------------------------
 Warning -- This program may not be used in any manner that
 competes with the business of Gaussian, Inc. or will provide
 assistance to any competitor of Gaussian, Inc.  The licensee
 of this program is prohibited from giving any competitor of
 Gaussian, Inc. access to this program.  By using this program,
 the user acknowledges that Gaussian, Inc. is engaged in the
 business of creating and licensing software in the field of
 computational chemistry and represents and warrants to the
 licensee that it is not a competitor of Gaussian, Inc. and that
 it will not use this program in any manner prohibited above.
 ---------------------------------------------------------------


 Cite this work as:
 Gaussian 09, Revision D.01,
 M. J. Frisch, G. W. Trucks, H. B. Schlegel, G. E. Scuseria,
 M. A. Robb, J. R. Cheeseman, G. Scalmani, V. Barone, B. Mennucci,
 G. A. Petersson, H. Nakatsuji, M. Caricato, X. Li, H. P. Hratchian,
 A. F. Izmaylov, J. Bloino, G. Zheng, J. L. Sonnenberg, M. Hada,
 M. Ehara, K. Toyota, R. Fukuda, J. Hasegawa, M. Ishida, T. Nakajima,
 Y. Honda, O. Kitao, H. Nakai, T. Vreven, J. A. Montgomery, Jr.,
 J. E. Peralta, F. Ogliaro, M. Bearpark, J. J. Heyd, E. Brothers,
 K. N. Kudin, V. N. Staroverov, T. Keith, R. Kobayashi, J. Normand,
 K. Raghavachari, A. Rendell, J. C. Burant, S. S. Iyengar, J. Tomasi,
 M. Cossi, N. Rega, J. M. Millam, M. Klene, J. E. Knox, J. B. Cross,
 V. Bakken, C. Adamo, J. Jaramillo, R. Gomperts, R. E. Stratmann,
 O. Yazyev, A. J. Austin, R. Cammi, C. Pomelli, J. W. Ochterski,
 R. L. Martin, K. Morokuma, V. G. Zakrzewski, G. A. Voth,
 P. Salvador, J. J. Dannenberg, S. Dapprich, A. D. Daniels,
 O. Farkas, J. B. Foresman, J. V. Ortiz, J. Cioslowski,
 and D. J. Fox, Gaussian, Inc., Wallingford CT, 2013.

 ******************************************
 Gaussian 09:  EM64L-G09RevD.01 24-Apr-2013
                30-May-2015
 ******************************************
 %mem=2048mb
 %NProcShared=4
 Will use up to    4 processors via shared memory.
 %chk=BSP_DACP2_R.chk
 ----------------------------------------------------------------------
 #p opt freq scf=xqc geom=connectivity pbe1pbe def2svp empiricaldispers
 ion=gd3bj
 ----------------------------------------------------------------------
 1/14=-1,18=20,19=15,26=3,38=1,57=2/1,3;
 2/9=110,12=2,17=6,18=5,40=1/2;
 3/5=43,7=101,11=2,16=1,25=1,30=1,71=1,74=-13,124=41/1,2,3;
 4//1;
 5/5=2,8=3,13=1,38=5/2,8;
 6/7=2,8=2,9=2,10=2,28=1/1;
 7//1,2,3,16;
 1/14=-1,18=20,19=15,26=3/3(2);
 2/9=110/2;
 99//99;
 2/9=110/2;
 3/5=43,7=101,11=2,16=1,25=1,30=1,71=1,74=-13,124=41/1,2,3;
 4/5=5,16=3,69=1/1;
 5/5=2,8=3,13=1,38=5/2,8;
 7//1,2,3,16;
 1/14=-1,18=20,19=15,26=3/3(-5);
 2/9=110/2;
 6/7=2,8=2,9=2,10=2,19=2,28=1/1;
 99/9=1/99;
 Leave Link    1 at Sat May 30 21:28:00 2015, MaxMem=   268435456 cpu:         0.3
 (Enter /usr/local/research/Gaussian09/g09-revD.01/g09/l101.exe)
 -------------------------------------------------------------
 -- "DACP2 PM6 Reactant Structure from SI for Optimisation" --
 -------------------------------------------------------------
 Symbolic Z-matrix:
 Charge =  0 Multiplicity = 1
 H                     0.16611   0.00022   1.28628
 C                     1.27525   0.00012   1.24914
 C                     1.80837  -1.18132   0.46671
 C                     2.52279  -0.73755  -0.59372
 C                     2.52293   0.73737  -0.59379
 C                     1.80859   1.18138   0.46659
 H                     1.63101   0.00013   2.29471
 C                    -2.5229    0.73745   0.59373
 H                     1.60674  -2.1908    0.76725
 H                     3.03181  -1.3175   -1.34087
 H                     3.03206   1.31715  -1.341
 C                    -1.80854   1.18135  -0.46668
 H                     1.60716   2.19092   0.76705
 H                    -1.60706   2.19086  -0.76721
 H                    -3.03202   1.31731   1.34089
 C                    -2.52283  -0.73747   0.59377
 C                    -1.80842  -1.18135  -0.46662
 H                    -3.03189  -1.31734   1.34096
 H                    -1.60684  -2.19086  -0.76709
 C                    -1.27524   0.00001  -1.24913
 H                    -0.1661    0.00006  -1.28626
 H                    -1.63098  -0.00004  -2.2947

 Add virtual bond connecting atoms H21        and H1         Dist= 4.90D+00.
 NAtoms=     22 NQM=       22 NQMF=       0 NMMI=      0 NMMIF=      0
                NMic=       0 NMicF=      0.
                    Isotopes and Nuclear Properties:
 (Nuclear quadrupole moments (NQMom) in fm**2, nuclear magnetic moments (NMagM)
  in nuclear magnetons)

  Atom         1           2           3           4           5           6           7           8           9          10
 IAtWgt=           1          12          12          12          12          12           1          12           1           1
 AtmWgt=   1.0078250  12.0000000  12.0000000  12.0000000  12.0000000  12.0000000   1.0078250  12.0000000   1.0078250   1.0078250
 NucSpn=           1           0           0           0           0           0           1           0           1           1
 AtZEff=   0.0000000   0.0000000   0.0000000   0.0000000   0.0000000   0.0000000   0.0000000   0.0000000   0.0000000   0.0000000
 NQMom=    0.0000000   0.0000000   0.0000000   0.0000000   0.0000000   0.0000000   0.0000000   0.0000000   0.0000000   0.0000000
 NMagM=    2.7928460   0.0000000   0.0000000   0.0000000   0.0000000   0.0000000   2.7928460   0.0000000   2.7928460   2.7928460
 AtZNuc=   1.0000000   6.0000000   6.0000000   6.0000000   6.0000000   6.0000000   1.0000000   6.0000000   1.0000000   1.0000000

  Atom        11          12          13          14          15          16          17          18          19          20
 IAtWgt=           1          12           1           1           1          12          12           1           1          12
 AtmWgt=   1.0078250  12.0000000   1.0078250   1.0078250   1.0078250  12.0000000  12.0000000   1.0078250   1.0078250  12.0000000
 NucSpn=           1           0           1           1           1           0           0           1           1           0
 AtZEff=   0.0000000   0.0000000   0.0000000   0.0000000   0.0000000   0.0000000   0.0000000   0.0000000   0.0000000   0.0000000
 NQMom=    0.0000000   0.0000000   0.0000000   0.0000000   0.0000000   0.0000000   0.0000000   0.0000000   0.0000000   0.0000000
 NMagM=    2.7928460   0.0000000   2.7928460   2.7928460   2.7928460   0.0000000   0.0000000   2.7928460   2.7928460   0.0000000
 AtZNuc=   1.0000000   6.0000000   1.0000000   1.0000000   1.0000000   6.0000000   6.0000000   1.0000000   1.0000000   6.0000000

  Atom        21          22
 IAtWgt=           1           1
 AtmWgt=   1.0078250   1.0078250
 NucSpn=           1           1
 AtZEff=   0.0000000   0.0000000
 NQMom=    0.0000000   0.0000000
 NMagM=    2.7928460   2.7928460
 AtZNuc=   1.0000000   1.0000000
 Leave Link  101 at Sat May 30 21:28:00 2015, MaxMem=   268435456 cpu:         0.6
 (Enter /usr/local/research/Gaussian09/g09-revD.01/g09/l103.exe)

 GradGradGradGradGradGradGradGradGradGradGradGradGradGradGradGradGradGrad
 Berny optimization.
 Initialization pass.
                           ----------------------------
                           !    Initial Parameters    !
                           ! (Angstroms and Degrees)  !
 --------------------------                            --------------------------
 ! Name  Definition              Value          Derivative Info.                !
 --------------------------------------------------------------------------------
 ! R1    R(1,2)                  1.1098         estimate D2E/DX2                !
 ! R2    R(1,21)                 2.5939         estimate D2E/DX2                !
 ! R3    R(2,3)                  1.514          estimate D2E/DX2                !
 ! R4    R(2,6)                  1.514          estimate D2E/DX2                !
 ! R5    R(2,7)                  1.1044         estimate D2E/DX2                !
 ! R6    R(3,4)                  1.3534         estimate D2E/DX2                !
 ! R7    R(3,9)                  1.0724         estimate D2E/DX2                !
 ! R8    R(4,5)                  1.4749         estimate D2E/DX2                !
 ! R9    R(4,10)                 1.0741         estimate D2E/DX2                !
 ! R10   R(5,6)                  1.3534         estimate D2E/DX2                !
 ! R11   R(5,11)                 1.0741         estimate D2E/DX2                !
 ! R12   R(6,13)                 1.0724         estimate D2E/DX2                !
 ! R13   R(8,12)                 1.3534         estimate D2E/DX2                !
 ! R14   R(8,15)                 1.0741         estimate D2E/DX2                !
 ! R15   R(8,16)                 1.4749         estimate D2E/DX2                !
 ! R16   R(12,14)                1.0724         estimate D2E/DX2                !
 ! R17   R(12,20)                1.514          estimate D2E/DX2                !
 ! R18   R(16,17)                1.3534         estimate D2E/DX2                !
 ! R19   R(16,18)                1.0741         estimate D2E/DX2                !
 ! R20   R(17,19)                1.0724         estimate D2E/DX2                !
 ! R21   R(17,20)                1.514          estimate D2E/DX2                !
 ! R22   R(20,21)                1.1098         estimate D2E/DX2                !
 ! R23   R(20,22)                1.1044         estimate D2E/DX2                !
 ! A1    A(2,1,21)              95.4402         estimate D2E/DX2                !
 ! A2    A(1,2,3)              111.6724         estimate D2E/DX2                !
 ! A3    A(1,2,6)              111.6725         estimate D2E/DX2                !
 ! A4    A(1,2,7)              106.8734         estimate D2E/DX2                !
 ! A5    A(3,2,6)              102.5725         estimate D2E/DX2                !
 ! A6    A(3,2,7)              112.0759         estimate D2E/DX2                !
 ! A7    A(6,2,7)              112.076          estimate D2E/DX2                !
 ! A8    A(2,3,4)              109.5677         estimate D2E/DX2                !
 ! A9    A(2,3,9)              121.5682         estimate D2E/DX2                !
 ! A10   A(4,3,9)              128.8639         estimate D2E/DX2                !
 ! A11   A(3,4,5)              109.1456         estimate D2E/DX2                !
 ! A12   A(3,4,10)             128.1792         estimate D2E/DX2                !
 ! A13   A(5,4,10)             122.6744         estimate D2E/DX2                !
 ! A14   A(4,5,6)              109.1456         estimate D2E/DX2                !
 ! A15   A(4,5,11)             122.6743         estimate D2E/DX2                !
 ! A16   A(6,5,11)             128.1792         estimate D2E/DX2                !
 ! A17   A(2,6,5)              109.5676         estimate D2E/DX2                !
 ! A18   A(2,6,13)             121.5681         estimate D2E/DX2                !
 ! A19   A(5,6,13)             128.8641         estimate D2E/DX2                !
 ! A20   A(12,8,15)            128.1792         estimate D2E/DX2                !
 ! A21   A(12,8,16)            109.1457         estimate D2E/DX2                !
 ! A22   A(15,8,16)            122.6744         estimate D2E/DX2                !
 ! A23   A(8,12,14)            128.864          estimate D2E/DX2                !
 ! A24   A(8,12,20)            109.5676         estimate D2E/DX2                !
 ! A25   A(14,12,20)           121.5682         estimate D2E/DX2                !
 ! A26   A(8,16,17)            109.1456         estimate D2E/DX2                !
 ! A27   A(8,16,18)            122.6744         estimate D2E/DX2                !
 ! A28   A(17,16,18)           128.1792         estimate D2E/DX2                !
 ! A29   A(16,17,19)           128.8639         estimate D2E/DX2                !
 ! A30   A(16,17,20)           109.5677         estimate D2E/DX2                !
 ! A31   A(19,17,20)           121.5682         estimate D2E/DX2                !
 ! A32   A(12,20,17)           102.5725         estimate D2E/DX2                !
 ! A33   A(12,20,21)           111.6724         estimate D2E/DX2                !
 ! A34   A(12,20,22)           112.076          estimate D2E/DX2                !
 ! A35   A(17,20,21)           111.6724         estimate D2E/DX2                !
 ! A36   A(17,20,22)           112.076          estimate D2E/DX2                !
 ! A37   A(21,20,22)           106.8734         estimate D2E/DX2                !
 ! A38   A(1,21,20)             95.4411         estimate D2E/DX2                !
 ! D1    D(21,1,2,3)           -57.0999         estimate D2E/DX2                !
 ! D2    D(21,1,2,6)            57.103          estimate D2E/DX2                !
 ! D3    D(21,1,2,7)          -179.9984         estimate D2E/DX2                !
 ! D4    D(2,1,21,20)          179.9917         estimate D2E/DX2                !
 ! D5    D(1,2,3,4)            119.4154         estimate D2E/DX2                !
 ! D6    D(1,2,3,9)            -60.4468         estimate D2E/DX2                !
 ! D7    D(6,2,3,4)             -0.3059         estimate D2E/DX2                !
 ! D8    D(6,2,3,9)            179.8319         estimate D2E/DX2                !
 ! D9    D(7,2,3,4)           -120.7026         estimate D2E/DX2                !
 ! D10   D(7,2,3,9)             59.4352         estimate D2E/DX2                !
 ! D11   D(1,2,6,5)           -119.4153         estimate D2E/DX2                !
 ! D12   D(1,2,6,13)            60.4471         estimate D2E/DX2                !
 ! D13   D(3,2,6,5)              0.3058         estimate D2E/DX2                !
 ! D14   D(3,2,6,13)          -179.8317         estimate D2E/DX2                !
 ! D15   D(7,2,6,5)            120.7025         estimate D2E/DX2                !
 ! D16   D(7,2,6,13)           -59.4351         estimate D2E/DX2                !
 ! D17   D(2,3,4,5)              0.2025         estimate D2E/DX2                !
 ! D18   D(2,3,4,10)           179.881          estimate D2E/DX2                !
 ! D19   D(9,3,4,5)           -179.9482         estimate D2E/DX2                !
 ! D20   D(9,3,4,10)            -0.2698         estimate D2E/DX2                !
 ! D21   D(3,4,5,6)              0.0            estimate D2E/DX2                !
 ! D22   D(3,4,5,11)           179.6997         estimate D2E/DX2                !
 ! D23   D(10,4,5,6)          -179.6998         estimate D2E/DX2                !
 ! D24   D(10,4,5,11)           -0.0001         estimate D2E/DX2                !
 ! D25   D(4,5,6,2)             -0.2025         estimate D2E/DX2                !
 ! D26   D(4,5,6,13)           179.9481         estimate D2E/DX2                !
 ! D27   D(11,5,6,2)          -179.8809         estimate D2E/DX2                !
 ! D28   D(11,5,6,13)            0.2697         estimate D2E/DX2                !
 ! D29   D(15,8,12,14)           0.2698         estimate D2E/DX2                !
 ! D30   D(15,8,12,20)        -179.8809         estimate D2E/DX2                !
 ! D31   D(16,8,12,14)         179.948          estimate D2E/DX2                !
 ! D32   D(16,8,12,20)          -0.2027         estimate D2E/DX2                !
 ! D33   D(12,8,16,17)           0.0            estimate D2E/DX2                !
 ! D34   D(12,8,16,18)        -179.6996         estimate D2E/DX2                !
 ! D35   D(15,8,16,17)         179.6996         estimate D2E/DX2                !
 ! D36   D(15,8,16,18)           0.0            estimate D2E/DX2                !
 ! D37   D(8,12,20,17)           0.3061         estimate D2E/DX2                !
 ! D38   D(8,12,20,21)        -119.4151         estimate D2E/DX2                !
 ! D39   D(8,12,20,22)         120.7028         estimate D2E/DX2                !
 ! D40   D(14,12,20,17)       -179.8316         estimate D2E/DX2                !
 ! D41   D(14,12,20,21)         60.4472         estimate D2E/DX2                !
 ! D42   D(14,12,20,22)        -59.4349         estimate D2E/DX2                !
 ! D43   D(8,16,17,19)        -179.9481         estimate D2E/DX2                !
 ! D44   D(8,16,17,20)           0.2026         estimate D2E/DX2                !
 ! D45   D(18,16,17,19)         -0.2698         estimate D2E/DX2                !
 ! D46   D(18,16,17,20)        179.8809         estimate D2E/DX2                !
 ! D47   D(16,17,20,12)         -0.3061         estimate D2E/DX2                !
 ! D48   D(16,17,20,21)        119.4151         estimate D2E/DX2                !
 ! D49   D(16,17,20,22)       -120.7028         estimate D2E/DX2                !
 ! D50   D(19,17,20,12)        179.8317         estimate D2E/DX2                !
 ! D51   D(19,17,20,21)        -60.4471         estimate D2E/DX2                !
 ! D52   D(19,17,20,22)         59.435          estimate D2E/DX2                !
 ! D53   D(12,20,21,1)          57.0997         estimate D2E/DX2                !
 ! D54   D(17,20,21,1)         -57.1031         estimate D2E/DX2                !
 ! D55   D(22,20,21,1)         179.9983         estimate D2E/DX2                !
 --------------------------------------------------------------------------------
 Trust Radius=3.00D-01 FncErr=1.00D-07 GrdErr=1.00D-06
 Number of steps in this run=    126 maximum allowed number of steps=    132.
 GradGradGradGradGradGradGradGradGradGradGradGradGradGradGradGradGradGrad

 Leave Link  103 at Sat May 30 21:28:00 2015, MaxMem=   268435456 cpu:         0.1
 (Enter /usr/local/research/Gaussian09/g09-revD.01/g09/l202.exe)
                          Input orientation:
 ---------------------------------------------------------------------
 Center     Atomic      Atomic             Coordinates (Angstroms)
 Number     Number       Type             X           Y           Z
 ---------------------------------------------------------------------
      1          1           0        0.166108    0.000224    1.286281
      2          6           0        1.275248    0.000117    1.249140
      3          6           0        1.808367   -1.181322    0.466705
      4          6           0        2.522786   -0.737552   -0.593717
      5          6           0        2.522928    0.737366   -0.593788
      6          6           0        1.808594    1.181377    0.466591
      7          1           0        1.631011    0.000133    2.294706
      8          6           0       -2.522902    0.737452    0.593727
      9          1           0        1.606737   -2.190799    0.767254
     10          1           0        3.031808   -1.317503   -1.340870
     11          1           0        3.032063    1.317147   -1.340997
     12          6           0       -1.808538    1.181351   -0.466679
     13          1           0        1.607159    2.190921    0.767045
     14          1           0       -1.607055    2.190863   -0.767206
     15          1           0       -3.032018    1.317313    1.340886
     16          6           0       -2.522829   -0.737466    0.593767
     17          6           0       -1.808420   -1.181349   -0.466615
     18          1           0       -3.031887   -1.317337    1.340957
     19          1           0       -1.606835   -2.190858   -0.767087
     20          6           0       -1.275236    0.000006   -1.249132
     21          1           0       -0.166096    0.000060   -1.286257
     22          1           0       -1.630984   -0.000040   -2.294703
 ---------------------------------------------------------------------
                    Distance matrix (angstroms):
                    1          2          3          4          5
     1  H    0.000000
     2  C    1.109762   0.000000
     3  C    2.182835   1.514007   0.000000
     4  C    3.103649   2.344489   1.353448   0.000000
     5  C    3.103649   2.344488   2.305777   1.474918   0.000000
     6  C    2.182836   1.514007   2.362699   2.305778   1.353448
     7  H    1.778444   1.104435   2.183776   3.111660   3.111660
     8  C    2.872962   3.924178   4.738958   5.389307   5.183685
     9  H    2.673085   2.267645   1.072394   2.191647   3.356485
    10  H    4.104944   3.395553   2.186934   1.074097   2.244900
    11  H    4.104945   3.395552   3.317765   2.244901   1.074098
    12  C    2.892604   3.721436   4.419890   4.739061   4.356016
    13  H    2.673086   2.267643   3.391565   3.356486   2.191648
    14  H    3.487093   4.143994   4.955732   5.065698   4.381722
    15  H    3.459149   4.505104   5.516946   6.230651   5.910730
    16  C    2.873003   3.924147   4.355733   5.183469   5.389349
    17  C    2.892667   3.721382   3.735269   4.355738   4.739010
    18  H    3.459209   4.505056   4.920455   5.910457   6.230651
    19  H    3.487189   4.143905   3.768953   4.381315   5.065518
    20  C    2.916469   3.570201   3.721322   3.924096   3.924185
    21  H    2.593899   2.916455   2.892584   2.872937   2.872975
    22  H    4.006618   4.583122   4.566173   4.548745   4.548831
                    6          7          8          9         10
     6  C    0.000000
     7  H    2.183776   0.000000
     8  C    4.356041   4.548842   0.000000
     9  H    3.391565   2.670933   5.065440   0.000000
    10  H    3.317766   4.112883   6.230595   2.690290   0.000000
    11  H    2.186935   4.112883   5.910739   4.333816   2.634650
    12  C    3.735591   4.566292   1.353449   4.955612   5.517013
    13  H    1.072393   2.670930   4.381782   4.381720   4.333817
    14  H    3.769347   4.965851   2.191647   5.646414   5.844380
    15  H    4.920812   4.938479   1.074097   5.844138   7.134708
    16  C    4.739130   4.548806   1.474918   4.381277   5.910436
    17  C    4.419970   4.566232   2.305777   3.768915   4.920434
    18  H    5.517096   4.938419   2.244900   4.754882   6.630279
    19  H    4.955712   4.965749   3.356485   3.561074   4.754891
    20  C    3.721472   4.583128   2.344489   4.143816   4.504983
    21  H    2.892644   4.006606   3.103646   3.487077   3.459125
    22  H    4.566310   5.630567   3.111662   4.965666   4.938333
                   11         12         13         14         15
    11  H    0.000000
    12  C    4.920802   0.000000
    13  H    2.690292   3.769389   0.000000
    14  H    4.755421   1.072393   3.561614   0.000000
    15  H    6.630654   2.186934   4.755465   2.690290   0.000000
    16  C    6.230696   2.305779   5.065795   3.356486   2.244900
    17  C    5.517001   2.362700   4.955835   3.391566   3.317765
    18  H    7.134765   3.317766   5.844484   4.333816   2.634650
    19  H    5.844215   3.391566   5.646530   4.381721   4.333816
    20  C    4.505122   1.514008   4.144066   2.267644   3.395552
    21  H    3.459181   2.182836   3.487170   2.673087   4.104942
    22  H    4.938476   2.183777   4.965902   2.670932   4.112885
                   16         17         18         19         20
    16  C    0.000000
    17  C    1.353448   0.000000
    18  H    1.074097   2.186934   0.000000
    19  H    2.191647   1.072394   2.690290   0.000000
    20  C    2.344489   1.514007   3.395552   2.267644   0.000000
    21  H    3.103647   2.182835   4.104942   2.673086   1.109761
    22  H    3.111663   2.183777   4.112885   2.670932   1.104434
                   21         22
    21  H    0.000000
    22  H    1.778443   0.000000
 Stoichiometry    C10H12
 Framework group  C1[X(C10H12)]
 Deg. of freedom    60
 Full point group                 C1      NOp   1
 Largest Abelian subgroup         C1      NOp   1
 Largest concise Abelian subgroup C1      NOp   1
                         Standard orientation:
 ---------------------------------------------------------------------
 Center     Atomic      Atomic             Coordinates (Angstroms)
 Number     Number       Type             X           Y           Z
 ---------------------------------------------------------------------
      1          1           0       -0.166108   -0.000224    1.286281
      2          6           0       -1.275248   -0.000117    1.249140
      3          6           0       -1.808367    1.181322    0.466705
      4          6           0       -2.522786    0.737552   -0.593717
      5          6           0       -2.522928   -0.737366   -0.593788
      6          6           0       -1.808594   -1.181377    0.466591
      7          1           0       -1.631011   -0.000133    2.294706
      8          6           0        2.522902   -0.737452    0.593727
      9          1           0       -1.606737    2.190799    0.767254
     10          1           0       -3.031808    1.317503   -1.340870
     11          1           0       -3.032063   -1.317147   -1.340997
     12          6           0        1.808538   -1.181351   -0.466679
     13          1           0       -1.607159   -2.190921    0.767045
     14          1           0        1.607055   -2.190863   -0.767206
     15          1           0        3.032018   -1.317313    1.340886
     16          6           0        2.522829    0.737466    0.593767
     17          6           0        1.808420    1.181349   -0.466615
     18          1           0        3.031887    1.317337    1.340957
     19          1           0        1.606835    2.190858   -0.767087
     20          6           0        1.275236   -0.000006   -1.249132
     21          1           0        0.166096   -0.000060   -1.286257
     22          1           0        1.630984    0.000040   -2.294703
 ---------------------------------------------------------------------
 Rotational constants (GHZ):      2.4319780      0.7862046      0.7499549
 Leave Link  202 at Sat May 30 21:28:00 2015, MaxMem=   268435456 cpu:         0.0
 (Enter /usr/local/research/Gaussian09/g09-revD.01/g09/l301.exe)
 Standard basis: def2SVP (5D, 7F)
 Ernie: Thresh=  0.10000D-02 Tol=  0.10000D-05 Strict=F.
 There are   210 symmetry adapted cartesian basis functions of A   symmetry.
 There are   200 symmetry adapted basis functions of A   symmetry.
   200 basis functions,   334 primitive gaussians,   210 cartesian basis functions
    36 alpha electrons       36 beta electrons
       nuclear repulsion energy       472.6927779265 Hartrees.
 IExCor= 1009 DFT=T Ex+Corr=PBE1PBE ExCW=0 ScaHFX=  0.250000
 ScaDFX=  0.750000  0.750000  1.000000  1.000000 ScalE2=  1.000000  1.000000
 IRadAn=      0 IRanWt=     -1 IRanGd=            0 ICorTp=0 IEmpDi=141
 NAtoms=   22 NActive=   22 NUniq=   22 SFac= 1.00D+00 NAtFMM=   60 NAOKFM=F Big=F
 Integral buffers will be    131072 words long.
 Raffenetti 2 integral format.
 Two-electron integral symmetry is turned on.
 R6Disp:  Grimme-D3(BJ) Dispersion energy=       -0.0197503006 Hartrees.
 Nuclear repulsion after empirical dispersion term =      472.6730276260 Hartrees.
 Leave Link  301 at Sat May 30 21:28:01 2015, MaxMem=   268435456 cpu:         0.3
 (Enter /usr/local/research/Gaussian09/g09-revD.01/g09/l302.exe)
 NPDir=0 NMtPBC=     1 NCelOv=     1 NCel=       1 NClECP=     1 NCelD=      1
         NCelK=      1 NCelE2=     1 NClLst=     1 CellRange=     0.0.
 One-electron integrals computed using PRISM.
   1 Symmetry operations used in ECPInt.
 ECPInt:  NShTT=    4656 NPrTT=   16456 LenC2=    4592 LenP2D=   12767.
 LDataN:  DoStor=T MaxTD1= 4 Len=   56
 NBasis=   200 RedAO= T EigKep=  8.51D-04  NBF=   200
 NBsUse=   200 1.00D-06 EigRej= -1.00D+00 NBFU=   200
 Precomputing XC quadrature grid using
 IXCGrd= 4 IRadAn=           0 IRanWt=          -1 IRanGd=           0 AccXCQ= 0.00D+00.
 Generated NRdTot=       0 NPtTot=           0 NUsed=           0 NTot=          32
 NSgBfM=   210   210   210   210   210 MxSgAt=    22 MxSgA2=    22.
 Leave Link  302 at Sat May 30 21:28:01 2015, MaxMem=   268435456 cpu:         2.0
 (Enter /usr/local/research/Gaussian09/g09-revD.01/g09/l303.exe)
 DipDrv:  MaxL=1.
 Leave Link  303 at Sat May 30 21:28:02 2015, MaxMem=   268435456 cpu:         0.3
 (Enter /usr/local/research/Gaussian09/g09-revD.01/g09/l401.exe)
 ExpMin= 1.22D-01 ExpMax= 1.24D+03 ExpMxC= 1.86D+02 IAcc=1 IRadAn=         1 AccDes= 0.00D+00
 Harris functional with IExCor= 1009 and IRadAn=       1 diagonalized for initial guess.
 HarFok:  IExCor= 1009 AccDes= 0.00D+00 IRadAn=         1 IDoV= 1 UseB2=F ITyADJ=14
 ICtDFT=  3500011 ScaDFX=  1.000000  1.000000  1.000000  1.000000
 FoFCou: FMM=F IPFlag=           0 FMFlag=      100000 FMFlg1=           0
         NFxFlg=           0 DoJE=T BraDBF=F KetDBF=T FulRan=T
         wScrn=  0.000000 ICntrl=     500 IOpCl=  0 I1Cent=   200000004 NGrid=           0
         NMat0=    1 NMatS0=      1 NMatT0=    0 NMatD0=    1 NMtDS0=    0 NMtDT0=    0
 Petite list used in FoFCou.
 Harris En= -387.630196404099
 JPrj=0 DoOrth=F DoCkMO=F.
 Leave Link  401 at Sat May 30 21:28:03 2015, MaxMem=   268435456 cpu:         4.0
 (Enter /usr/local/research/Gaussian09/g09-revD.01/g09/l502.exe)
 Closed shell SCF:
 Using DIIS extrapolation, IDIIS=  1040.
 Integral symmetry usage will be decided dynamically.
 Keep R1 ints in memory in canonical form, NReq=206853012.
 IVT=      141102 IEndB=      141102 NGot=   268435456 MDV=    66279305
 LenX=    66279305 LenY=    66234764
 Requested convergence on RMS density matrix=1.00D-08 within  64 cycles.
 Requested convergence on MAX density matrix=1.00D-06.
 Requested convergence on             energy=1.00D-06.
 No special actions if energy rises.
 FoFCou: FMM=F IPFlag=           0 FMFlag=           0 FMFlg1=           0
         NFxFlg=           0 DoJE=F BraDBF=F KetDBF=F FulRan=T
         wScrn=  0.000000 ICntrl=     600 IOpCl=  0 I1Cent=           0 NGrid=           0
         NMat0=    1 NMatS0=  20100 NMatT0=    0 NMatD0=    1 NMtDS0=    0 NMtDT0=    0
 Symmetry not used in FoFCou.
 Integral accuracy reduced to 1.0D-05 until final iterations.

 Cycle   1  Pass 0  IDiag  1:
 E= -387.233091739415
 DIIS: error= 3.42D-02 at cycle   1 NSaved=   1.
 NSaved= 1 IEnMin= 1 EnMin= -387.233091739415     IErMin= 1 ErrMin= 3.42D-02
 ErrMax= 3.42D-02  0.00D+00 EMaxC= 1.00D-01 BMatC= 1.98D-01 BMatP= 1.98D-01
 IDIUse=3 WtCom= 6.58D-01 WtEn= 3.42D-01
 Coeff-Com:  0.100D+01
 Coeff-En:   0.100D+01
 Coeff:      0.100D+01
 Gap=     0.190 Goal=   None    Shift=    0.000
 GapD=    0.190 DampG=1.000 DampE=0.500 DampFc=0.5000 IDamp=-1.
 Damping current iteration by 5.00D-01
 RMSDP=5.19D-03 MaxDP=1.08D-01              OVMax= 1.47D-01

 Cycle   2  Pass 0  IDiag  1:
 E= -387.347356281104     Delta-E=       -0.114264541689 Rises=F Damp=T
 DIIS: error= 5.61D-03 at cycle   2 NSaved=   2.
 NSaved= 2 IEnMin= 2 EnMin= -387.347356281104     IErMin= 2 ErrMin= 5.61D-03
 ErrMax= 5.61D-03  0.00D+00 EMaxC= 1.00D-01 BMatC= 8.79D-03 BMatP= 1.98D-01
 IDIUse=3 WtCom= 9.44D-01 WtEn= 5.61D-02
 Coeff-Com:  0.219D-01 0.978D+00
 Coeff-En:   0.867D-02 0.991D+00
 Coeff:      0.212D-01 0.979D+00
 Gap=     0.204 Goal=   None    Shift=    0.000
 RMSDP=1.58D-03 MaxDP=2.78D-02 DE=-1.14D-01 OVMax= 8.20D-02

 Cycle   3  Pass 0  IDiag  1:
 E= -387.472689627387     Delta-E=       -0.125333346283 Rises=F Damp=F
 DIIS: error= 3.04D-03 at cycle   3 NSaved=   3.
 NSaved= 3 IEnMin= 3 EnMin= -387.472689627387     IErMin= 3 ErrMin= 3.04D-03
 ErrMax= 3.04D-03  0.00D+00 EMaxC= 1.00D-01 BMatC= 1.41D-03 BMatP= 8.79D-03
 IDIUse=3 WtCom= 9.70D-01 WtEn= 3.04D-02
 Coeff-Com: -0.266D-01 0.250D+00 0.777D+00
 Coeff-En:   0.000D+00 0.000D+00 0.100D+01
 Coeff:     -0.258D-01 0.242D+00 0.784D+00
 Gap=     0.202 Goal=   None    Shift=    0.000
 RMSDP=3.32D-04 MaxDP=4.91D-03 DE=-1.25D-01 OVMax= 8.21D-03

 Cycle   4  Pass 0  IDiag  1:
 E= -387.473761680949     Delta-E=       -0.001072053562 Rises=F Damp=F
 DIIS: error= 1.07D-03 at cycle   4 NSaved=   4.
 NSaved= 4 IEnMin= 4 EnMin= -387.473761680949     IErMin= 4 ErrMin= 1.07D-03
 ErrMax= 1.07D-03  0.00D+00 EMaxC= 1.00D-01 BMatC= 1.87D-04 BMatP= 1.41D-03
 IDIUse=3 WtCom= 9.89D-01 WtEn= 1.07D-02
 Coeff-Com: -0.116D-01 0.629D-01 0.305D+00 0.644D+00
 Coeff-En:   0.000D+00 0.000D+00 0.000D+00 0.100D+01
 Coeff:     -0.115D-01 0.622D-01 0.302D+00 0.648D+00
 Gap=     0.202 Goal=   None    Shift=    0.000
 RMSDP=1.28D-04 MaxDP=2.78D-03 DE=-1.07D-03 OVMax= 6.91D-03

 Cycle   5  Pass 0  IDiag  1:
 E= -387.473849821524     Delta-E=       -0.000088140575 Rises=F Damp=F
 DIIS: error= 8.58D-04 at cycle   5 NSaved=   5.
 NSaved= 5 IEnMin= 5 EnMin= -387.473849821524     IErMin= 5 ErrMin= 8.58D-04
 ErrMax= 8.58D-04  0.00D+00 EMaxC= 1.00D-01 BMatC= 1.05D-04 BMatP= 1.87D-04
 IDIUse=3 WtCom= 9.91D-01 WtEn= 8.58D-03
 Coeff-Com: -0.424D-02 0.708D-02 0.889D-01 0.439D+00 0.470D+00
 Coeff-En:   0.000D+00 0.000D+00 0.000D+00 0.383D+00 0.617D+00
 Coeff:     -0.421D-02 0.702D-02 0.881D-01 0.438D+00 0.471D+00
 Gap=     0.202 Goal=   None    Shift=    0.000
 RMSDP=5.47D-05 MaxDP=1.14D-03 DE=-8.81D-05 OVMax= 3.10D-03

 Cycle   6  Pass 0  IDiag  1:
 E= -387.473963448867     Delta-E=       -0.000113627343 Rises=F Damp=F
 DIIS: error= 5.16D-05 at cycle   6 NSaved=   6.
 NSaved= 6 IEnMin= 6 EnMin= -387.473963448867     IErMin= 6 ErrMin= 5.16D-05
 ErrMax= 5.16D-05  0.00D+00 EMaxC= 1.00D-01 BMatC= 4.82D-07 BMatP= 1.05D-04
 IDIUse=1 WtCom= 1.00D+00 WtEn= 0.00D+00
 Coeff-Com: -0.150D-02 0.173D-02 0.290D-01 0.161D+00 0.185D+00 0.625D+00
 Coeff:     -0.150D-02 0.173D-02 0.290D-01 0.161D+00 0.185D+00 0.625D+00
 Gap=     0.202 Goal=   None    Shift=    0.000
 RMSDP=5.51D-06 MaxDP=8.32D-05 DE=-1.14D-04 OVMax= 1.41D-04

 Initial convergence to 1.0D-05 achieved.  Increase integral accuracy.
 Cycle   7  Pass 1  IDiag  1:
 E= -387.474007441384     Delta-E=       -0.000043992517 Rises=F Damp=F
 DIIS: error= 3.25D-05 at cycle   1 NSaved=   1.
 NSaved= 1 IEnMin= 1 EnMin= -387.474007441384     IErMin= 1 ErrMin= 3.25D-05
 ErrMax= 3.25D-05  0.00D+00 EMaxC= 1.00D-01 BMatC= 1.20D-07 BMatP= 1.20D-07
 IDIUse=1 WtCom= 1.00D+00 WtEn= 0.00D+00
 Coeff-Com:  0.100D+01
 Coeff:      0.100D+01
 Gap=     0.202 Goal=   None    Shift=    0.000
 RMSDP=5.51D-06 MaxDP=8.32D-05 DE=-4.40D-05 OVMax= 1.74D-04

 Cycle   8  Pass 1  IDiag  1:
 E= -387.474007610331     Delta-E=       -0.000000168948 Rises=F Damp=F
 DIIS: error= 1.18D-05 at cycle   2 NSaved=   2.
 NSaved= 2 IEnMin= 2 EnMin= -387.474007610331     IErMin= 2 ErrMin= 1.18D-05
 ErrMax= 1.18D-05  0.00D+00 EMaxC= 1.00D-01 BMatC= 3.09D-08 BMatP= 1.20D-07
 IDIUse=1 WtCom= 1.00D+00 WtEn= 0.00D+00
 Coeff-Com:  0.266D+00 0.734D+00
 Coeff:      0.266D+00 0.734D+00
 Gap=     0.202 Goal=   None    Shift=    0.000
 RMSDP=1.56D-06 MaxDP=4.38D-05 DE=-1.69D-07 OVMax= 4.88D-05

 Cycle   9  Pass 1  IDiag  1:
 E= -387.474007631007     Delta-E=       -0.000000020675 Rises=F Damp=F
 DIIS: error= 6.91D-06 at cycle   3 NSaved=   3.
 NSaved= 3 IEnMin= 3 EnMin= -387.474007631007     IErMin= 3 ErrMin= 6.91D-06
 ErrMax= 6.91D-06  0.00D+00 EMaxC= 1.00D-01 BMatC= 1.11D-08 BMatP= 3.09D-08
 IDIUse=1 WtCom= 1.00D+00 WtEn= 0.00D+00
 Coeff-Com: -0.251D-01 0.368D+00 0.657D+00
 Coeff:     -0.251D-01 0.368D+00 0.657D+00
 Gap=     0.202 Goal=   None    Shift=    0.000
 RMSDP=5.87D-07 MaxDP=1.29D-05 DE=-2.07D-08 OVMax= 3.05D-05

 Cycle  10  Pass 1  IDiag  1:
 E= -387.474007641005     Delta-E=       -0.000000009998 Rises=F Damp=F
 DIIS: error= 2.44D-06 at cycle   4 NSaved=   4.
 NSaved= 4 IEnMin= 4 EnMin= -387.474007641005     IErMin= 4 ErrMin= 2.44D-06
 ErrMax= 2.44D-06  0.00D+00 EMaxC= 1.00D-01 BMatC= 1.02D-09 BMatP= 1.11D-08
 IDIUse=1 WtCom= 1.00D+00 WtEn= 0.00D+00
 Coeff-Com: -0.250D-01 0.202D+00 0.401D+00 0.422D+00
 Coeff:     -0.250D-01 0.202D+00 0.401D+00 0.422D+00
 Gap=     0.202 Goal=   None    Shift=    0.000
 RMSDP=1.96D-07 MaxDP=4.05D-06 DE=-1.00D-08 OVMax= 1.08D-05

 Cycle  11  Pass 1  IDiag  1:
 E= -387.474007642066     Delta-E=       -0.000000001061 Rises=F Damp=F
 DIIS: error= 3.87D-07 at cycle   5 NSaved=   5.
 NSaved= 5 IEnMin= 5 EnMin= -387.474007642066     IErMin= 5 ErrMin= 3.87D-07
 ErrMax= 3.87D-07  0.00D+00 EMaxC= 1.00D-01 BMatC= 2.36D-11 BMatP= 1.02D-09
 IDIUse=1 WtCom= 1.00D+00 WtEn= 0.00D+00
 Coeff-Com: -0.792D-02 0.534D-01 0.110D+00 0.180D+00 0.665D+00
 Coeff:     -0.792D-02 0.534D-01 0.110D+00 0.180D+00 0.665D+00
 Gap=     0.202 Goal=   None    Shift=    0.000
 RMSDP=3.65D-08 MaxDP=7.64D-07 DE=-1.06D-09 OVMax= 1.79D-06

 Cycle  12  Pass 1  IDiag  1:
 E= -387.474007642113     Delta-E=       -0.000000000047 Rises=F Damp=F
 DIIS: error= 9.75D-08 at cycle   6 NSaved=   6.
 NSaved= 6 IEnMin= 6 EnMin= -387.474007642113     IErMin= 6 ErrMin= 9.75D-08
 ErrMax= 9.75D-08  0.00D+00 EMaxC= 1.00D-01 BMatC= 1.61D-12 BMatP= 2.36D-11
 IDIUse=1 WtCom= 1.00D+00 WtEn= 0.00D+00
 Coeff-Com: -0.330D-03-0.103D-02-0.342D-03 0.216D-01 0.248D+00 0.732D+00
 Coeff:     -0.330D-03-0.103D-02-0.342D-03 0.216D-01 0.248D+00 0.732D+00
 Gap=     0.202 Goal=   None    Shift=    0.000
 RMSDP=1.09D-08 MaxDP=2.42D-07 DE=-4.68D-11 OVMax= 3.09D-07

 Cycle  13  Pass 1  IDiag  1:
 E= -387.474007642100     Delta-E=        0.000000000013 Rises=F Damp=F
 DIIS: error= 9.92D-09 at cycle   7 NSaved=   7.
 NSaved= 7 IEnMin= 6 EnMin= -387.474007642113     IErMin= 7 ErrMin= 9.92D-09
 ErrMax= 9.92D-09  0.00D+00 EMaxC= 1.00D-01 BMatC= 2.91D-14 BMatP= 1.61D-12
 IDIUse=1 WtCom= 1.00D+00 WtEn= 0.00D+00
 Coeff-Com:  0.200D-03-0.228D-02-0.401D-02-0.352D-02 0.301D-01 0.154D+00
 Coeff-Com:  0.825D+00
 Coeff:      0.200D-03-0.228D-02-0.401D-02-0.352D-02 0.301D-01 0.154D+00
 Coeff:      0.825D+00
 Gap=     0.202 Goal=   None    Shift=    0.000
 RMSDP=1.67D-09 MaxDP=3.00D-08 DE= 1.31D-11 OVMax= 7.63D-08

 SCF Done:  E(RPBE1PBE) =  -387.474007642     A.U. after   13 cycles
            NFock= 13  Conv=0.17D-08     -V/T= 2.0113
 KE= 3.831570219193D+02 PE=-1.841501954835D+03 EE= 5.981978976478D+02
 Leave Link  502 at Sat May 30 21:28:43 2015, MaxMem=   268435456 cpu:       159.6
 (Enter /usr/local/research/Gaussian09/g09-revD.01/g09/l508.exe)
 QCSCF skips out because SCF is already converged.
 Leave Link  508 at Sat May 30 21:28:43 2015, MaxMem=   268435456 cpu:         0.0
 (Enter /usr/local/research/Gaussian09/g09-revD.01/g09/l601.exe)
 Copying SCF densities to generalized density rwf, IOpCl= 0 IROHF=0.

 **********************************************************************

            Population analysis using the SCF density.

 **********************************************************************

 Orbital symmetries:
       Occupied  (A) (A) (A) (A) (A) (A) (A) (A) (A) (A) (A) (A)
                 (A) (A) (A) (A) (A) (A) (A) (A) (A) (A) (A) (A)
                 (A) (A) (A) (A) (A) (A) (A) (A) (A) (A) (A) (A)
       Virtual   (A) (A) (A) (A) (A) (A) (A) (A) (A) (A) (A) (A)
                 (A) (A) (A) (A) (A) (A) (A) (A) (A) (A) (A) (A)
                 (A) (A) (A) (A) (A) (A) (A) (A) (A) (A) (A) (A)
                 (A) (A) (A) (A) (A) (A) (A) (A) (A) (A) (A) (A)
                 (A) (A) (A) (A) (A) (A) (A) (A) (A) (A) (A) (A)
                 (A) (A) (A) (A) (A) (A) (A) (A) (A) (A) (A) (A)
                 (A) (A) (A) (A) (A) (A) (A) (A) (A) (A) (A) (A)
                 (A) (A) (A) (A) (A) (A) (A) (A) (A) (A) (A) (A)
                 (A) (A) (A) (A) (A) (A) (A) (A) (A) (A) (A) (A)
                 (A) (A) (A) (A) (A) (A) (A) (A) (A) (A) (A) (A)
                 (A) (A) (A) (A) (A) (A) (A) (A) (A) (A) (A) (A)
                 (A) (A) (A) (A) (A) (A) (A) (A) (A) (A) (A) (A)
                 (A) (A) (A) (A) (A) (A) (A) (A) (A) (A) (A) (A)
                 (A) (A) (A) (A) (A) (A) (A) (A)
 The electronic state is 1-A.
 Alpha  occ. eigenvalues --  -10.23557 -10.23553 -10.23053 -10.23050 -10.23037
 Alpha  occ. eigenvalues --  -10.23033 -10.22975 -10.22971 -10.22970 -10.22967
 Alpha  occ. eigenvalues --   -0.87181  -0.86857  -0.71596  -0.71424  -0.71383
 Alpha  occ. eigenvalues --   -0.71340  -0.56189  -0.56111  -0.54286  -0.54167
 Alpha  occ. eigenvalues --   -0.52651  -0.52566  -0.45907  -0.42726  -0.41211
 Alpha  occ. eigenvalues --   -0.41141  -0.38770  -0.38733  -0.36763  -0.36663
 Alpha  occ. eigenvalues --   -0.36559  -0.36451  -0.32218  -0.30159  -0.23768
 Alpha  occ. eigenvalues --   -0.22444
 Alpha virt. eigenvalues --   -0.02243  -0.00863   0.07531   0.08158   0.08655
 Alpha virt. eigenvalues --    0.09996   0.11737   0.12028   0.12425   0.13761
 Alpha virt. eigenvalues --    0.14656   0.15276   0.15612   0.15963   0.16359
 Alpha virt. eigenvalues --    0.17353   0.19907   0.20424   0.23125   0.23821
 Alpha virt. eigenvalues --    0.33596   0.33940   0.34290   0.34771   0.39372
 Alpha virt. eigenvalues --    0.40870   0.42004   0.43133   0.44113   0.44261
 Alpha virt. eigenvalues --    0.45313   0.48687   0.49153   0.50147   0.50455
 Alpha virt. eigenvalues --    0.51730   0.51804   0.54265   0.55663   0.56061
 Alpha virt. eigenvalues --    0.59439   0.59480   0.60798   0.62451   0.62679
 Alpha virt. eigenvalues --    0.64917   0.65301   0.65901   0.65911   0.66935
 Alpha virt. eigenvalues --    0.68883   0.69064   0.69565   0.70020   0.70518
 Alpha virt. eigenvalues --    0.71025   0.71977   0.73391   0.76783   0.77127
 Alpha virt. eigenvalues --    0.77147   0.77663   0.79633   0.82157   0.84400
 Alpha virt. eigenvalues --    0.84650   0.88091   0.88498   0.89839   0.94436
 Alpha virt. eigenvalues --    0.94520   1.01774   1.02473   1.07745   1.12302
 Alpha virt. eigenvalues --    1.14607   1.18139   1.18218   1.22138   1.26666
 Alpha virt. eigenvalues --    1.27611   1.28179   1.28848   1.31074   1.31096
 Alpha virt. eigenvalues --    1.31188   1.54649   1.55533   1.55738   1.56521
 Alpha virt. eigenvalues --    1.58932   1.60420   1.64823   1.64919   1.68152
 Alpha virt. eigenvalues --    1.68168   1.70850   1.73604   1.74083   1.74141
 Alpha virt. eigenvalues --    1.76220   1.77618   1.79066   1.79478   1.81425
 Alpha virt. eigenvalues --    1.81923   1.85106   1.86155   1.87014   1.87899
 Alpha virt. eigenvalues --    1.88413   1.89953   1.96883   1.97669   2.00575
 Alpha virt. eigenvalues --    2.01934   2.02024   2.02161   2.03351   2.03861
 Alpha virt. eigenvalues --    2.06085   2.08937   2.09050   2.09694   2.16991
 Alpha virt. eigenvalues --    2.18167   2.21051   2.21969   2.24922   2.27094
 Alpha virt. eigenvalues --    2.27171   2.29237   2.29442   2.30495   2.42234
 Alpha virt. eigenvalues --    2.43446   2.43666   2.44797   2.48466   2.50472
 Alpha virt. eigenvalues --    2.57166   2.57186   2.60351   2.60437   2.62675
 Alpha virt. eigenvalues --    2.63835   2.73687   2.74932   2.75021   2.75865
 Alpha virt. eigenvalues --    2.81949   2.82692   2.85264   2.87433   2.88274
 Alpha virt. eigenvalues --    2.88518   2.98004   3.02058   3.14164   3.14203
 Alpha virt. eigenvalues --    3.27533   3.27899   3.51724   3.52363
          Condensed to atoms (all electrons):
               1          2          3          4          5          6
     1  H    0.573972   0.355443  -0.010718   0.000289   0.000290  -0.010719
     2  C    0.355443   4.827230   0.365161  -0.083728  -0.083729   0.365161
     3  C   -0.010718   0.365161   4.983477   0.532874  -0.010645  -0.140381
     4  C    0.000289  -0.083728   0.532874   4.942771   0.299414  -0.010646
     5  C    0.000290  -0.083729  -0.010645   0.299414   4.942766   0.532877
     6  C   -0.010719   0.365161  -0.140381  -0.010646   0.532877   4.983476
     7  H   -0.013380   0.352303  -0.011537   0.001789   0.001789  -0.011537
     8  C    0.004176  -0.001986  -0.000124  -0.000006   0.000070   0.000300
     9  H   -0.001052  -0.049173   0.430113  -0.051504   0.010415   0.006628
    10  H   -0.000333   0.013254  -0.067815   0.444220  -0.058255   0.008961
    11  H   -0.000333   0.013254   0.008961  -0.058254   0.444218  -0.067814
    12  C    0.000125  -0.001798   0.000402  -0.000124   0.000300  -0.000455
    13  H   -0.001052  -0.049174   0.006628   0.010415  -0.051504   0.430113
    14  H   -0.000088  -0.000175  -0.000035  -0.000010   0.000160   0.000894
    15  H    0.000027  -0.000026  -0.000002   0.000000  -0.000001   0.000019
    16  C    0.004173  -0.001985   0.000300   0.000070  -0.000006  -0.000124
    17  C    0.000121  -0.001797  -0.000457   0.000300  -0.000124   0.000402
    18  H    0.000027  -0.000026   0.000019  -0.000001   0.000000  -0.000002
    19  H   -0.000088  -0.000175   0.000894   0.000160  -0.000010  -0.000035
    20  C    0.000414   0.001149  -0.001798  -0.001985  -0.001986  -0.001798
    21  H   -0.004400   0.000414   0.000122   0.004173   0.004176   0.000124
    22  H    0.000326  -0.000004  -0.000005   0.000047   0.000047  -0.000005
               7          8          9         10         11         12
     1  H   -0.013380   0.004176  -0.001052  -0.000333  -0.000333   0.000125
     2  C    0.352303  -0.001986  -0.049173   0.013254   0.013254  -0.001798
     3  C   -0.011537  -0.000124   0.430113  -0.067815   0.008961   0.000402
     4  C    0.001789  -0.000006  -0.051504   0.444220  -0.058254  -0.000124
     5  C    0.001789   0.000070   0.010415  -0.058255   0.444218   0.000300
     6  C   -0.011537   0.000300   0.006628   0.008961  -0.067814  -0.000455
     7  H    0.606770   0.000047  -0.000878  -0.000351  -0.000351  -0.000005
     8  C    0.000047   4.942767  -0.000010   0.000000  -0.000001   0.532875
     9  H   -0.000878  -0.000010   0.639666  -0.006903  -0.000303  -0.000035
    10  H   -0.000351   0.000000  -0.006903   0.658594  -0.004974  -0.000002
    11  H   -0.000351  -0.000001  -0.000303  -0.004974   0.658593   0.000019
    12  C   -0.000005   0.532875  -0.000035  -0.000002   0.000019   4.983479
    13  H   -0.000878   0.000160  -0.000274  -0.000303  -0.006903   0.000893
    14  H    0.000005  -0.051504  -0.000001   0.000000   0.000000   0.430114
    15  H    0.000002   0.444219   0.000000   0.000000   0.000000  -0.067814
    16  C    0.000047   0.299414   0.000160  -0.000001   0.000000  -0.010647
    17  C   -0.000005  -0.010644   0.000895   0.000019  -0.000002  -0.140381
    18  H    0.000002  -0.058255   0.000000   0.000000   0.000000   0.008961
    19  H    0.000005   0.010415   0.000215   0.000000   0.000000   0.006628
    20  C   -0.000004  -0.083730  -0.000175  -0.000026  -0.000026   0.365160
    21  H    0.000326   0.000290  -0.000088   0.000027   0.000027  -0.010718
    22  H   -0.000002   0.001789   0.000005   0.000002   0.000002  -0.011537
              13         14         15         16         17         18
     1  H   -0.001052  -0.000088   0.000027   0.004173   0.000121   0.000027
     2  C   -0.049174  -0.000175  -0.000026  -0.001985  -0.001797  -0.000026
     3  C    0.006628  -0.000035  -0.000002   0.000300  -0.000457   0.000019
     4  C    0.010415  -0.000010   0.000000   0.000070   0.000300  -0.000001
     5  C   -0.051504   0.000160  -0.000001  -0.000006  -0.000124   0.000000
     6  C    0.430113   0.000894   0.000019  -0.000124   0.000402  -0.000002
     7  H   -0.000878   0.000005   0.000002   0.000047  -0.000005   0.000002
     8  C    0.000160  -0.051504   0.444219   0.299414  -0.010644  -0.058255
     9  H   -0.000274  -0.000001   0.000000   0.000160   0.000895   0.000000
    10  H   -0.000303   0.000000   0.000000  -0.000001   0.000019   0.000000
    11  H   -0.006903   0.000000   0.000000   0.000000  -0.000002   0.000000
    12  C    0.000893   0.430114  -0.067814  -0.010647  -0.140381   0.008961
    13  H    0.639666   0.000215   0.000000  -0.000010  -0.000035   0.000000
    14  H    0.000215   0.639666  -0.006903   0.010415   0.006628  -0.000303
    15  H    0.000000  -0.006903   0.658593  -0.058254   0.008961  -0.004974
    16  C   -0.000010   0.010415  -0.058254   4.942767   0.532875   0.444219
    17  C   -0.000035   0.006628   0.008961   0.532875   4.983474  -0.067815
    18  H    0.000000  -0.000303  -0.004974   0.444219  -0.067815   0.658594
    19  H   -0.000001  -0.000274  -0.000303  -0.051504   0.430113  -0.006903
    20  C   -0.000175  -0.049173   0.013254  -0.083727   0.365162   0.013254
    21  H   -0.000088  -0.001052  -0.000333   0.000289  -0.010719  -0.000333
    22  H    0.000005  -0.000878  -0.000351   0.001789  -0.011537  -0.000351
              19         20         21         22
     1  H   -0.000088   0.000414  -0.004400   0.000326
     2  C   -0.000175   0.001149   0.000414  -0.000004
     3  C    0.000894  -0.001798   0.000122  -0.000005
     4  C    0.000160  -0.001985   0.004173   0.000047
     5  C   -0.000010  -0.001986   0.004176   0.000047
     6  C   -0.000035  -0.001798   0.000124  -0.000005
     7  H    0.000005  -0.000004   0.000326  -0.000002
     8  C    0.010415  -0.083730   0.000290   0.001789
     9  H    0.000215  -0.000175  -0.000088   0.000005
    10  H    0.000000  -0.000026   0.000027   0.000002
    11  H    0.000000  -0.000026   0.000027   0.000002
    12  C    0.006628   0.365160  -0.010718  -0.011537
    13  H   -0.000001  -0.000175  -0.000088   0.000005
    14  H   -0.000274  -0.049173  -0.001052  -0.000878
    15  H   -0.000303   0.013254  -0.000333  -0.000351
    16  C   -0.051504  -0.083727   0.000289   0.001789
    17  C    0.430113   0.365162  -0.010719  -0.011537
    18  H   -0.006903   0.013254  -0.000333  -0.000351
    19  H    0.639666  -0.049173  -0.001052  -0.000878
    20  C   -0.049173   4.827230   0.355443   0.352303
    21  H   -0.001052   0.355443   0.573972  -0.013380
    22  H   -0.000878   0.352303  -0.013380   0.606771
 Mulliken charges:
               1
     1  H    0.102779
     2  C   -0.019592
     3  C   -0.085435
     4  C   -0.030263
     5  C   -0.030261
     6  C   -0.085439
     7  H    0.075842
     8  C   -0.030262
     9  H    0.022299
    10  H    0.013885
    11  H    0.013886
    12  C   -0.085440
    13  H    0.022299
    14  H    0.022299
    15  H    0.013885
    16  C   -0.030261
    17  C   -0.085434
    18  H    0.013885
    19  H    0.022298
    20  C   -0.019592
    21  H    0.102779
    22  H    0.075842
 Sum of Mulliken charges =   0.00000
 Mulliken charges with hydrogens summed into heavy atoms:
               1
     2  C    0.159029
     3  C   -0.063136
     4  C   -0.016378
     5  C   -0.016375
     6  C   -0.063140
     8  C   -0.016376
    12  C   -0.063141
    16  C   -0.016376
    17  C   -0.063135
    20  C    0.159029
 Electronic spatial extent (au):  <R**2>=           1674.7765
 Charge=              0.0000 electrons
 Dipole moment (field-independent basis, Debye):
    X=              0.0000    Y=              0.0000    Z=              0.0000  Tot=              0.0000
 Quadrupole moment (field-independent basis, Debye-Ang):
   XX=            -64.4237   YY=            -57.7708   ZZ=            -56.7702
   XY=              0.0000   XZ=              3.4504   YZ=             -0.0002
 Traceless Quadrupole moment (field-independent basis, Debye-Ang):
   XX=             -4.7688   YY=              1.8841   ZZ=              2.8847
   XY=              0.0000   XZ=              3.4504   YZ=             -0.0002
 Octapole moment (field-independent basis, Debye-Ang**2):
  XXX=              0.0002  YYY=             -0.0002  ZZZ=              0.0000  XYY=              0.0000
  XXY=             -0.0014  XXZ=              0.0002  XZZ=             -0.0002  YZZ=              0.0001
  YYZ=              0.0000  XYZ=              0.0011
 Hexadecapole moment (field-independent basis, Debye-Ang**3):
 XXXX=          -1674.8882 YYYY=           -388.3879 ZZZZ=           -314.7815 XXXY=             -0.0011
 XXXZ=             73.7223 YYYX=              0.0002 YYYZ=             -0.0001 ZZZX=             -0.0419
 ZZZY=             -0.0003 XXYY=           -330.9581 XXZZ=           -294.4432 YYZZ=           -120.3831
 XXYZ=             -0.0015 YYXZ=              6.9174 ZZXY=              0.0004
 N-N= 4.726730276260D+02 E-N=-1.841501952598D+03  KE= 3.831570219193D+02
 No NMR shielding tensors so no spin-rotation constants.
 Leave Link  601 at Sat May 30 21:28:44 2015, MaxMem=   268435456 cpu:         1.1
 (Enter /usr/local/research/Gaussian09/g09-revD.01/g09/l701.exe)
 Compute integral first derivatives.
 ... and contract with generalized density number  0.
 R6Disp: Adding Grimme-D3(BJ) dispersion energy 1st derivatives to the gradient.
   1 Symmetry operations used in ECPInt.
 ECPInt:  NShTT=    4656 NPrTT=   16456 LenC2=    4592 LenP2D=   12767.
 LDataN:  DoStor=T MaxTD1= 5 Len=  102
 Leave Link  701 at Sat May 30 21:28:44 2015, MaxMem=   268435456 cpu:         1.3
 (Enter /usr/local/research/Gaussian09/g09-revD.01/g09/l702.exe)
 L702 exits ... SP integral derivatives will be done elsewhere.
 Leave Link  702 at Sat May 30 21:28:44 2015, MaxMem=   268435456 cpu:         0.1
 (Enter /usr/local/research/Gaussian09/g09-revD.01/g09/l703.exe)
 Compute integral first derivatives, UseDBF=F ICtDFT=           0.
 Integral derivatives from FoFJK, PRISM(SPDF).
 Calling FoFJK, ICntrl=      2127 FMM=F ISym2X=0 I1Cent= 0 IOpClX= 0 NMat=1 NMatS=1 NMatT=0.
 FoFJK:  IHMeth= 1 ICntrl=    2127 DoSepK=F KAlg= 0 I1Cent=   0 FoldK=F
 IRaf=         0 NMat=   1 IRICut=       1 DoRegI=T DoRafI=F ISym2E= 0.
 FoFCou: FMM=F IPFlag=           0 FMFlag=      100000 FMFlg1=         800
         NFxFlg=           0 DoJE=F BraDBF=F KetDBF=F FulRan=T
         wScrn=  0.000000 ICntrl=    2127 IOpCl=  0 I1Cent=           0 NGrid=           0
         NMat0=    1 NMatS0=      1 NMatT0=    0 NMatD0=    1 NMtDS0=    0 NMtDT0=    0
 Symmetry not used in FoFCou.
 Leave Link  703 at Sat May 30 21:28:59 2015, MaxMem=   268435456 cpu:        59.4
 (Enter /usr/local/research/Gaussian09/g09-revD.01/g09/l716.exe)
 Dipole        =-6.28604707D-06-1.69748563D-05 2.94044042D-06
 ***** Axes restored to original set *****
 -------------------------------------------------------------------
 Center     Atomic                   Forces (Hartrees/Bohr)
 Number     Number              X              Y              Z
 -------------------------------------------------------------------
      1        1           0.002392268   -0.000000207    0.000382167
      2        6           0.008963141   -0.000002289   -0.017561634
      3        6          -0.001777822    0.019456092    0.002415551
      4        6          -0.007966562    0.014149973    0.012560201
      5        6          -0.007969403   -0.014146567    0.012561093
      6        6          -0.001781460   -0.019455858    0.002416479
      7        1          -0.000270344    0.000000045    0.000609947
      8        6           0.007968918   -0.014147994   -0.012560450
      9        1          -0.000709809   -0.014179164    0.000698019
     10        1           0.004887093   -0.009693691   -0.007525366
     11        1           0.004888680    0.009691796   -0.007525923
     12        6           0.001780642   -0.019457293   -0.002414838
     13        1          -0.000706845    0.014179739    0.000696479
     14        1           0.000707725    0.014180036   -0.000697771
     15        1          -0.004888552    0.009692790    0.007525528
     16        6           0.007967851    0.014148745   -0.012561883
     17        6           0.001778774    0.019456061   -0.002416248
     18        1          -0.004887720   -0.009693055    0.007526277
     19        1           0.000709112   -0.014179224   -0.000696907
     20        6          -0.008964036    0.000000302    0.017561535
     21        1          -0.002391996   -0.000000221   -0.000382268
     22        1           0.000270344   -0.000000017   -0.000609989
 -------------------------------------------------------------------
 Cartesian Forces:  Max     0.019457293 RMS     0.009155418
 Leave Link  716 at Sat May 30 21:28:59 2015, MaxMem=   268435456 cpu:         0.1
 (Enter /usr/local/research/Gaussian09/g09-revD.01/g09/l103.exe)

 GradGradGradGradGradGradGradGradGradGradGradGradGradGradGradGradGradGrad
 Berny optimization.
 FormGI is forming the generalized inverse of G from B-inverse, IUseBI=4.
 Internal  Forces:  Max     0.013675863 RMS     0.004423437
 Search for a local minimum.
 Step number   1 out of a maximum of  126
 All quantities printed in internal units (Hartrees-Bohrs-Radians)
 RMS Force = .44234D-02 SwitMx=.10000D-02 MixMth= 1
 Mixed Optimization -- RFO/linear search
 Second derivative matrix not updated -- first step.
 ITU=  0
     Eigenvalues ---    0.00230   0.00230   0.00230   0.00828   0.00828
     Eigenvalues ---    0.01273   0.01286   0.01286   0.01558   0.01558
     Eigenvalues ---    0.01777   0.01777   0.01892   0.01892   0.02231
     Eigenvalues ---    0.02231   0.05052   0.05052   0.06468   0.06468
     Eigenvalues ---    0.06883   0.06883   0.09492   0.09492   0.16000
     Eigenvalues ---    0.16000   0.16000   0.16000   0.16000   0.16000
     Eigenvalues ---    0.16000   0.16000   0.16000   0.16000   0.20322
     Eigenvalues ---    0.20322   0.22000   0.22000   0.29286   0.29286
     Eigenvalues ---    0.30207   0.30207   0.32625   0.32625   0.33196
     Eigenvalues ---    0.33196   0.34111   0.34111   0.36717   0.36717
     Eigenvalues ---    0.36717   0.36717   0.36929   0.36929   0.36929
     Eigenvalues ---    0.36929   0.49561   0.49561   0.53672   0.53672
 RFO step:  Lambda=-7.11384219D-03 EMin= 2.30000000D-03
 Linear search not attempted -- first point.
 Iteration  1 RMS(Cart)=  0.01533944 RMS(Int)=  0.00017188
 Iteration  2 RMS(Cart)=  0.00021727 RMS(Int)=  0.00003918
 Iteration  3 RMS(Cart)=  0.00000005 RMS(Int)=  0.00003918
 ITry= 1 IFail=0 DXMaxC= 4.52D-02 DCOld= 1.00D+10 DXMaxT= 3.00D-01 DXLimC= 3.00D+00 Rises=F
 Variable       Old X    -DE/DX   Delta X   Delta X   Delta X     New X
                                 (Linear)    (Quad)   (Total)
    R1        2.09715  -0.00241   0.00000  -0.00724  -0.00724   2.08990
    R2        4.90176  -0.00032   0.00000  -0.01609  -0.01609   4.88567
    R3        2.86106  -0.00960   0.00000  -0.03125  -0.03121   2.82985
    R4        2.86106  -0.00960   0.00000  -0.03125  -0.03121   2.82985
    R5        2.08708   0.00049   0.00000   0.00144   0.00144   2.08852
    R6        2.55765  -0.00585   0.00000  -0.01041  -0.01043   2.54722
    R7        2.02653   0.01368   0.00000   0.03633   0.03633   2.06286
    R8        2.78719  -0.00532   0.00000  -0.01380  -0.01385   2.77334
    R9        2.02975   0.01279   0.00000   0.03417   0.03417   2.06392
   R10        2.55765  -0.00585   0.00000  -0.01041  -0.01043   2.54722
   R11        2.02975   0.01279   0.00000   0.03416   0.03416   2.06392
   R12        2.02653   0.01368   0.00000   0.03633   0.03633   2.06286
   R13        2.55765  -0.00585   0.00000  -0.01041  -0.01043   2.54722
   R14        2.02975   0.01279   0.00000   0.03417   0.03417   2.06392
   R15        2.78719  -0.00532   0.00000  -0.01380  -0.01385   2.77334
   R16        2.02653   0.01368   0.00000   0.03633   0.03633   2.06286
   R17        2.86106  -0.00960   0.00000  -0.03125  -0.03121   2.82985
   R18        2.55765  -0.00585   0.00000  -0.01041  -0.01043   2.54722
   R19        2.02975   0.01279   0.00000   0.03417   0.03417   2.06392
   R20        2.02653   0.01368   0.00000   0.03633   0.03633   2.06286
   R21        2.86106  -0.00960   0.00000  -0.03125  -0.03121   2.82985
   R22        2.09714  -0.00241   0.00000  -0.00724  -0.00724   2.08990
   R23        2.08708   0.00049   0.00000   0.00144   0.00144   2.08852
    A1        1.66575  -0.00001   0.00000  -0.00004  -0.00004   1.66570
    A2        1.94905  -0.00115   0.00000  -0.00273  -0.00279   1.94626
    A3        1.94905  -0.00115   0.00000  -0.00273  -0.00279   1.94626
    A4        1.86529   0.00021   0.00000  -0.00833  -0.00835   1.85694
    A5        1.79023   0.00377   0.00000   0.01960   0.01965   1.80988
    A6        1.95609  -0.00085   0.00000  -0.00258  -0.00264   1.95346
    A7        1.95609  -0.00085   0.00000  -0.00258  -0.00263   1.95346
    A8        1.91232  -0.00208   0.00000  -0.01121  -0.01118   1.90113
    A9        2.12177   0.00496   0.00000   0.02907   0.02905   2.15082
   A10        2.24910  -0.00288   0.00000  -0.01786  -0.01787   2.23123
   A11        1.90495   0.00019   0.00000   0.00143   0.00136   1.90631
   A12        2.23715  -0.00346   0.00000  -0.02081  -0.02079   2.21636
   A13        2.14107   0.00327   0.00000   0.01942   0.01944   2.16051
   A14        1.90495   0.00019   0.00000   0.00143   0.00136   1.90631
   A15        2.14107   0.00327   0.00000   0.01942   0.01944   2.16051
   A16        2.23715  -0.00346   0.00000  -0.02081  -0.02079   2.21636
   A17        1.91232  -0.00208   0.00000  -0.01121  -0.01118   1.90113
   A18        2.12176   0.00496   0.00000   0.02907   0.02906   2.15082
   A19        2.24910  -0.00288   0.00000  -0.01786  -0.01788   2.23123
   A20        2.23715  -0.00346   0.00000  -0.02081  -0.02079   2.21636
   A21        1.90495   0.00019   0.00000   0.00143   0.00136   1.90631
   A22        2.14107   0.00327   0.00000   0.01942   0.01944   2.16051
   A23        2.24910  -0.00288   0.00000  -0.01786  -0.01788   2.23123
   A24        1.91231  -0.00208   0.00000  -0.01121  -0.01118   1.90113
   A25        2.12177   0.00496   0.00000   0.02907   0.02906   2.15082
   A26        1.90495   0.00019   0.00000   0.00143   0.00136   1.90631
   A27        2.14107   0.00327   0.00000   0.01942   0.01944   2.16051
   A28        2.23715  -0.00346   0.00000  -0.02081  -0.02079   2.21636
   A29        2.24910  -0.00288   0.00000  -0.01786  -0.01787   2.23123
   A30        1.91232  -0.00208   0.00000  -0.01121  -0.01118   1.90113
   A31        2.12177   0.00496   0.00000   0.02907   0.02905   2.15082
   A32        1.79023   0.00377   0.00000   0.01960   0.01965   1.80988
   A33        1.94905  -0.00115   0.00000  -0.00273  -0.00279   1.94626
   A34        1.95609  -0.00085   0.00000  -0.00258  -0.00263   1.95346
   A35        1.94905  -0.00115   0.00000  -0.00273  -0.00279   1.94626
   A36        1.95610  -0.00085   0.00000  -0.00258  -0.00264   1.95346
   A37        1.86529   0.00021   0.00000  -0.00833  -0.00835   1.85694
   A38        1.66576  -0.00001   0.00000  -0.00005  -0.00005   1.66571
    D1       -0.99658  -0.00163   0.00000  -0.01051  -0.01052  -1.00710
    D2        0.99664   0.00163   0.00000   0.01042   0.01042   1.00705
    D3       -3.14156   0.00000   0.00000  -0.00005  -0.00005   3.14157
    D4        3.14145   0.00000   0.00000   0.00001   0.00001   3.14146
    D5        2.08419   0.00055   0.00000   0.01395   0.01396   2.09815
    D6       -1.05500   0.00056   0.00000   0.01452   0.01453  -1.04046
    D7       -0.00534   0.00026   0.00000   0.00703   0.00703   0.00169
    D8        3.13866   0.00027   0.00000   0.00760   0.00761  -3.13692
    D9       -2.10666  -0.00057   0.00000  -0.00041  -0.00042  -2.10708
   D10        1.03734  -0.00056   0.00000   0.00016   0.00016   1.03750
   D11       -2.08419  -0.00055   0.00000  -0.01395  -0.01396  -2.09815
   D12        1.05500  -0.00056   0.00000  -0.01452  -0.01454   1.04047
   D13        0.00534  -0.00026   0.00000  -0.00703  -0.00703  -0.00169
   D14       -3.13866  -0.00027   0.00000  -0.00760  -0.00761   3.13692
   D15        2.10666   0.00057   0.00000   0.00040   0.00042   2.10708
   D16       -1.03734   0.00056   0.00000  -0.00016  -0.00016  -1.03750
   D17        0.00353  -0.00018   0.00000  -0.00470  -0.00464  -0.00111
   D18        3.13952   0.00007   0.00000   0.00344   0.00338  -3.14029
   D19       -3.14069  -0.00018   0.00000  -0.00524  -0.00517   3.13733
   D20       -0.00471   0.00007   0.00000   0.00290   0.00285  -0.00185
   D21        0.00000   0.00000   0.00000   0.00000   0.00000   0.00000
   D22        3.13635   0.00021   0.00000   0.00745   0.00756  -3.13928
   D23       -3.13635  -0.00021   0.00000  -0.00744  -0.00756   3.13928
   D24        0.00000   0.00000   0.00000   0.00000   0.00000   0.00000
   D25       -0.00353   0.00018   0.00000   0.00469   0.00464   0.00111
   D26        3.14069   0.00018   0.00000   0.00523   0.00517  -3.13733
   D27       -3.13951  -0.00007   0.00000  -0.00344  -0.00338   3.14029
   D28        0.00471  -0.00007   0.00000  -0.00290  -0.00285   0.00185
   D29        0.00471  -0.00007   0.00000  -0.00290  -0.00285   0.00185
   D30       -3.13951  -0.00007   0.00000  -0.00344  -0.00338   3.14029
   D31        3.14069   0.00018   0.00000   0.00523   0.00517  -3.13733
   D32       -0.00354   0.00018   0.00000   0.00470   0.00464   0.00111
   D33        0.00000   0.00000   0.00000   0.00000   0.00000   0.00000
   D34       -3.13635  -0.00021   0.00000  -0.00745  -0.00756   3.13928
   D35        3.13635   0.00021   0.00000   0.00745   0.00756  -3.13928
   D36        0.00000   0.00000   0.00000   0.00000   0.00000   0.00000
   D37        0.00534  -0.00026   0.00000  -0.00703  -0.00703  -0.00169
   D38       -2.08419  -0.00055   0.00000  -0.01395  -0.01396  -2.09814
   D39        2.10666   0.00057   0.00000   0.00040   0.00042   2.10708
   D40       -3.13865  -0.00027   0.00000  -0.00760  -0.00761   3.13692
   D41        1.05500  -0.00056   0.00000  -0.01452  -0.01453   1.04047
   D42       -1.03733   0.00056   0.00000  -0.00017  -0.00016  -1.03749
   D43       -3.14069  -0.00018   0.00000  -0.00524  -0.00517   3.13733
   D44        0.00354  -0.00018   0.00000  -0.00470  -0.00464  -0.00111
   D45       -0.00471   0.00007   0.00000   0.00290   0.00285  -0.00186
   D46        3.13951   0.00007   0.00000   0.00344   0.00338  -3.14029
   D47       -0.00534   0.00026   0.00000   0.00703   0.00703   0.00169
   D48        2.08419   0.00055   0.00000   0.01395   0.01396   2.09815
   D49       -2.10666  -0.00057   0.00000  -0.00040  -0.00042  -2.10708
   D50        3.13866   0.00027   0.00000   0.00760   0.00761  -3.13692
   D51       -1.05500   0.00056   0.00000   0.01452   0.01454  -1.04047
   D52        1.03734  -0.00056   0.00000   0.00016   0.00016   1.03749
   D53        0.99658   0.00163   0.00000   0.01043   0.01044   1.00701
   D54       -0.99664  -0.00163   0.00000  -0.01049  -0.01050  -1.00714
   D55        3.14156   0.00000   0.00000  -0.00003  -0.00003   3.14153
         Item               Value     Threshold  Converged?
 Maximum Force            0.013676     0.000450     NO
 RMS     Force            0.004423     0.000300     NO
 Maximum Displacement     0.045194     0.001800     NO
 RMS     Displacement     0.015381     0.001200     NO
 Predicted change in Energy=-3.654791D-03
 Lowest energy point so far.  Saving SCF results.
 GradGradGradGradGradGradGradGradGradGradGradGradGradGradGradGradGradGrad

 Leave Link  103 at Sat May 30 21:28:59 2015, MaxMem=   268435456 cpu:         0.2
 (Enter /usr/local/research/Gaussian09/g09-revD.01/g09/l202.exe)
                          Input orientation:
 ---------------------------------------------------------------------
 Center     Atomic      Atomic             Coordinates (Angstroms)
 Number     Number       Type             X           Y           Z
 ---------------------------------------------------------------------
      1          1           0        0.174359    0.000241    1.280888
      2          6           0        1.279387    0.000142    1.236238
      3          6           0        1.797926   -1.177581    0.470360
      4          6           0        2.513343   -0.733920   -0.582379
      5          6           0        2.513466    0.733667   -0.582512
      6          6           0        1.798127    1.177640    0.470148
      7          1           0        1.633889    0.000204    2.283037
      8          6           0       -2.513444    0.733758    0.582451
      9          1           0        1.598930   -2.212035    0.756609
     10          1           0        3.021741   -1.341419   -1.334261
     11          1           0        3.021967    1.340944   -1.334504
     12          6           0       -1.798081    1.177621   -0.470239
     13          1           0        1.599310    2.212179    0.756212
     14          1           0       -1.599223    2.212131   -0.756382
     15          1           0       -3.021927    1.341113    1.334392
     16          6           0       -2.513376   -0.733829    0.582433
     17          6           0       -1.797969   -1.177599   -0.470267
     18          1           0       -3.021801   -1.341250    1.334360
     19          1           0       -1.599012   -2.212083   -0.756434
     20          6           0       -1.279380    0.000044   -1.236233
     21          1           0       -0.174352    0.000096   -1.280872
     22          1           0       -1.633872    0.000038   -2.283036
 ---------------------------------------------------------------------
                    Distance matrix (angstroms):
                    1          2          3          4          5
     1  H    0.000000
     2  C    1.105929   0.000000
     3  C    2.163374   1.497492   0.000000
     4  C    3.079221   2.317080   1.347930   0.000000
     5  C    3.079220   2.317080   2.296390   1.467587   0.000000
     6  C    2.163374   1.497493   2.355220   2.296390   1.347930
     7  H    1.770460   1.105197   2.167921   3.085933   3.085936
     8  C    2.872307   3.918061   4.717382   5.364653   5.160133
     9  H    2.682990   2.286018   1.091619   2.194051   3.362556
    10  H    4.092266   3.382757   2.186601   1.092177   2.264829
    11  H    4.092265   3.382757   3.331483   2.264829   1.092177
    12  C    2.888458   3.710705   4.400338   4.717514   4.335797
    13  H    2.682991   2.286019   3.407585   3.362556   2.194051
    14  H    3.491206   4.141234   4.953349   5.061886   4.373820
    15  H    3.466561   4.506566   5.506483   6.214418   5.889320
    16  C    2.872389   3.918064   4.335527   5.159912   5.364679
    17  C    2.888587   3.710708   3.716886   4.335532   4.717416
    18  H    3.466684   4.506571   4.899291   5.889020   6.214407
    19  H    3.491404   4.141239   3.756914   4.373411   5.061637
    20  C    2.906761   3.558146   3.710671   3.918033   3.918066
    21  H    2.585384   2.906750   2.888532   2.872347   2.872316
    22  H    3.996406   4.568628   4.554692   4.542062   4.542071
                    6          7          8          9         10
     6  C    0.000000
     7  H    2.167924   0.000000
     8  C    4.335815   4.542077   0.000000
     9  H    3.407584   2.687974   5.061586   0.000000
    10  H    3.331483   4.100114   6.214372   2.674715   0.000000
    11  H    2.186601   4.100116   5.889327   4.361358   2.682362
    12  C    3.717128   4.554696   1.347930   4.953242   5.506612
    13  H    1.091619   2.687978   4.373862   4.424214   4.361358
    14  H    3.757197   4.958195   2.194051   5.664854   5.857898
    15  H    4.899649   4.937062   1.092177   5.857560   7.130470
    16  C    4.717560   4.542099   1.467587   4.373384   5.889006
    17  C    4.400390   4.554729   2.296389   3.756888   4.899278
    18  H    5.506666   4.937098   2.264829   4.737428   6.606507
    19  H    4.953309   4.958250   3.362555   3.537815   4.737435
    20  C    3.710730   4.568632   2.317080   4.141182   4.506526
    21  H    2.888486   3.996396   3.079218   3.491329   3.466630
    22  H    4.554710   5.614916   3.085937   4.958197   4.937044
                   11         12         13         14         15
    11  H    0.000000
    12  C    4.899642   0.000000
    13  H    2.674714   3.757228   0.000000
    14  H    4.737994   1.091619   3.538157   0.000000
    15  H    6.606941   2.186601   4.738025   2.674714   0.000000
    16  C    6.214447   2.296390   5.061951   3.362556   2.264829
    17  C    5.506519   2.355220   4.953418   3.407584   3.331483
    18  H    7.130507   3.331483   5.857967   4.361358   2.682362
    19  H    5.857611   3.407584   5.664932   4.424214   4.361358
    20  C    4.506580   1.497493   4.141285   2.286019   3.382757
    21  H    3.466584   2.163374   3.491261   2.682992   4.092262
    22  H    4.937061   2.167925   4.958232   2.687979   4.100118
                   16         17         18         19         20
    16  C    0.000000
    17  C    1.347930   0.000000
    18  H    1.092177   2.186601   0.000000
    19  H    2.194051   1.091619   2.674714   0.000000
    20  C    2.317080   1.497492   3.382757   2.286018   0.000000
    21  H    3.079217   2.163372   4.092262   2.682988   1.105929
    22  H    3.085936   2.167923   4.100116   2.687975   1.105197
                   21         22
    21  H    0.000000
    22  H    1.770461   0.000000
 Stoichiometry    C10H12
 Framework group  C1[X(C10H12)]
 Deg. of freedom    60
 Full point group                 C1      NOp   1
 RotChk:  IX=0 Diff= 4.33D-03
 Largest Abelian subgroup         C1      NOp   1
 Largest concise Abelian subgroup C1      NOp   1
                         Standard orientation:
 ---------------------------------------------------------------------
 Center     Atomic      Atomic             Coordinates (Angstroms)
 Number     Number       Type             X           Y           Z
 ---------------------------------------------------------------------
      1          1           0       -0.178284   -0.000223    1.280348
      2          6           0       -1.283170   -0.000129    1.232310
      3          6           0       -1.799363    1.177580    0.464828
      4          6           0       -2.511549    0.733899   -0.590092
      5          6           0       -2.511666   -0.733688   -0.590201
      6          6           0       -1.799555   -1.177641    0.464654
      7          1           0       -1.640878   -0.000174    2.278019
      8          6           0        2.511650   -0.733742    0.590164
      9          1           0       -1.601250    2.212039    0.751667
     10          1           0       -3.017642    1.341383   -1.343539
     11          1           0       -3.017858   -1.340979   -1.343738
     12          6           0        1.799518   -1.177625   -0.464706
     13          1           0       -1.601613   -2.212175    0.751343
     14          1           0        1.601541   -2.212141   -0.751440
     15          1           0        3.017828   -1.341082    1.343670
     16          6           0        2.511576    0.733845    0.590121
     17          6           0        1.799398    1.177595   -0.464774
     18          1           0        3.017692    1.341280    1.343593
     19          1           0        1.601315    2.212073   -0.751566
     20          6           0        1.283164   -0.000063   -1.232306
     21          1           0        0.178277   -0.000119   -1.280331
     22          1           0        1.640862   -0.000073   -2.278018
 ---------------------------------------------------------------------
 Rotational constants (GHZ):      2.4507731      0.7932156      0.7546437
 Leave Link  202 at Sat May 30 21:29:00 2015, MaxMem=   268435456 cpu:         0.0
 (Enter /usr/local/research/Gaussian09/g09-revD.01/g09/l301.exe)
 Standard basis: def2SVP (5D, 7F)
 Ernie: Thresh=  0.10000D-02 Tol=  0.10000D-05 Strict=F.
 There are   210 symmetry adapted cartesian basis functions of A   symmetry.
 There are   200 symmetry adapted basis functions of A   symmetry.
   200 basis functions,   334 primitive gaussians,   210 cartesian basis functions
    36 alpha electrons       36 beta electrons
       nuclear repulsion energy       474.3142600962 Hartrees.
 IExCor= 1009 DFT=T Ex+Corr=PBE1PBE ExCW=0 ScaHFX=  0.250000
 ScaDFX=  0.750000  0.750000  1.000000  1.000000 ScalE2=  1.000000  1.000000
 IRadAn=      0 IRanWt=     -1 IRanGd=            0 ICorTp=0 IEmpDi=141
 NAtoms=   22 NActive=   22 NUniq=   22 SFac= 1.00D+00 NAtFMM=   60 NAOKFM=F Big=F
 Integral buffers will be    131072 words long.
 Raffenetti 2 integral format.
 Two-electron integral symmetry is turned on.
 R6Disp:  Grimme-D3(BJ) Dispersion energy=       -0.0197777426 Hartrees.
 Nuclear repulsion after empirical dispersion term =      474.2944823536 Hartrees.
 Leave Link  301 at Sat May 30 21:29:00 2015, MaxMem=   268435456 cpu:         0.3
 (Enter /usr/local/research/Gaussian09/g09-revD.01/g09/l302.exe)
 NPDir=0 NMtPBC=     1 NCelOv=     1 NCel=       1 NClECP=     1 NCelD=      1
         NCelK=      1 NCelE2=     1 NClLst=     1 CellRange=     0.0.
 One-electron integrals computed using PRISM.
   1 Symmetry operations used in ECPInt.
 ECPInt:  NShTT=    4656 NPrTT=   16456 LenC2=    4596 LenP2D=   12773.
 LDataN:  DoStor=T MaxTD1= 4 Len=   56
 NBasis=   200 RedAO= T EigKep=  8.20D-04  NBF=   200
 NBsUse=   200 1.00D-06 EigRej= -1.00D+00 NBFU=   200
 Precomputing XC quadrature grid using
 IXCGrd= 4 IRadAn=           0 IRanWt=          -1 IRanGd=           0 AccXCQ= 0.00D+00.
 Generated NRdTot=       0 NPtTot=           0 NUsed=           0 NTot=          32
 NSgBfM=   210   210   210   210   210 MxSgAt=    22 MxSgA2=    22.
 Leave Link  302 at Sat May 30 21:29:00 2015, MaxMem=   268435456 cpu:         2.0
 (Enter /usr/local/research/Gaussian09/g09-revD.01/g09/l303.exe)
 DipDrv:  MaxL=1.
 Leave Link  303 at Sat May 30 21:29:00 2015, MaxMem=   268435456 cpu:         0.2
 (Enter /usr/local/research/Gaussian09/g09-revD.01/g09/l401.exe)
 Initial guess from the checkpoint file:  "BSP_DACP2_R.chk"
 B after Tr=     0.000000    0.000000    0.000000
         Rot=    1.000000    0.000008    0.000875   -0.000001 Ang=   0.10 deg.
 Guess basis will be translated and rotated to current coordinates.
 JPrj=2 DoOrth=T DoCkMO=T.
 Generating alternative initial guess.
 ExpMin= 1.22D-01 ExpMax= 1.24D+03 ExpMxC= 1.86D+02 IAcc=1 IRadAn=         1 AccDes= 0.00D+00
 Harris functional with IExCor= 1009 and IRadAn=       1 diagonalized for initial guess.
 HarFok:  IExCor= 1009 AccDes= 0.00D+00 IRadAn=         1 IDoV= 1 UseB2=F ITyADJ=14
 ICtDFT=  3500011 ScaDFX=  1.000000  1.000000  1.000000  1.000000
 FoFCou: FMM=F IPFlag=           0 FMFlag=      100000 FMFlg1=           0
         NFxFlg=           0 DoJE=T BraDBF=F KetDBF=T FulRan=T
         wScrn=  0.000000 ICntrl=     500 IOpCl=  0 I1Cent=   200000004 NGrid=           0
         NMat0=    1 NMatS0=      1 NMatT0=    0 NMatD0=    1 NMtDS0=    0 NMtDT0=    0
 Petite list used in FoFCou.
 Harris En= -387.635894026321
 Leave Link  401 at Sat May 30 21:29:02 2015, MaxMem=   268435456 cpu:         4.5
 (Enter /usr/local/research/Gaussian09/g09-revD.01/g09/l502.exe)
 Closed shell SCF:
 Using DIIS extrapolation, IDIIS=  1040.
 Integral symmetry usage will be decided dynamically.
 Keep R1 ints in memory in canonical form, NReq=206853012.
 IVT=      141102 IEndB=      141102 NGot=   268435456 MDV=    66279305
 LenX=    66279305 LenY=    66234764
 Requested convergence on RMS density matrix=1.00D-08 within  64 cycles.
 Requested convergence on MAX density matrix=1.00D-06.
 Requested convergence on             energy=1.00D-06.
[...]
 533,0.00021830,0.00048681,-0.00015983,-0.00011621,-0.00011827,-0.00044
 506,-0.00063262,-0.00064026,0.00026804,0.00013123,-0.00010172,0.000026
 64,-0.00000401,0.15110101,0.14271305,-0.31638370,-0.00001003,0.0000444
 3,-0.00003316,-0.00001352,0.00002514,-0.00001318,0.00004899,0.00001647
 ,-0.00000963,-0.22927501,-0.12798457,0.52025627,0.00068420,0.00091617,
 -0.00068976,0.00055204,-0.01077907,-0.00526707,-0.00152471,-0.00146886
 ,0.00208285,0.00404104,0.00087912,0.00514758,0.00554876,0.01286435,0.0
 0029864,-0.03717217,0.00548739,0.01237285,0.00020404,-0.00036942,0.000
 75641,0.00002349,-0.00004437,0.00003053,0.00181055,-0.00058368,0.00054
 603,0.00068588,0.00055515,0.00000771,-0.00362812,-0.00033463,-0.002781
 46,0.00009919,0.00004145,0.00004664,0.02869260,-0.00023769,-0.00006377
 ,0.00013665,0.00339500,-0.00710299,-0.00593463,-0.00098199,-0.00057124
 ,0.00157248,0.00093900,-0.00080069,-0.00217397,-0.00328583,-0.00605911
 ,0.00458426,0.00698897,-0.35178811,-0.03336541,0.00005899,-0.00000835,
 0.00031818,0.00000663,-0.00003084,-0.00000823,0.00015778,-0.00031582,-
 0.00039495,-0.00013418,-0.00030652,0.00017016,0.00032084,0.00041473,-0
 .00013273,0.00001910,0.00000393,0.00002432,-0.00721923,0.36659012,0.00
 053989,-0.00007837,0.00017351,-0.00422931,0.01718027,0.00598863,0.0022
 2966,0.00228161,-0.00359476,0.00509111,-0.00213747,-0.00121162,-0.0009
 3956,-0.02141440,0.00512768,0.01246445,-0.03083227,-0.05241946,-0.0005
 8762,-0.00089005,0.00056293,-0.00000084,0.00003631,0.00000409,0.000537
 11,0.00076874,0.00129332,-0.00002332,-0.00096845,0.00066763,-0.0027178
 5,0.00092425,-0.00083893,-0.00002701,0.00001528,0.00003390,-0.01242388
 ,0.03522636,0.04428103,0.00007339,0.00023322,-0.00002874,0.00000573,-0
 .00005714,-0.00007377,0.00006590,-0.00008096,0.00003486,-0.00002639,-0
 .00004305,-0.00001560,0.00002349,0.00004438,0.00003052,0.00009919,-0.0
 0004145,0.00004664,-0.00000472,0.00000719,0.00000270,0.00554862,-0.012
 86455,0.00029967,0.00000562,-0.00001990,0.00000729,0.00000132,-0.00002
 144,-0.00001445,-0.00000425,0.00000542,0.00000006,-0.03717243,-0.00549
 195,0.01237395,-0.00013339,-0.00007899,-0.00003941,0.02869287,-0.00007
 900,-0.00013152,-0.00003436,0.00002207,0.00000884,0.00003718,-0.000002
 92,0.00005150,-0.00001209,0.00002754,0.00003201,0.00002630,-0.00000663
 ,-0.00003085,0.00000824,-0.00001910,0.00000392,-0.00002432,0.00001172,
 -0.00000902,0.00000314,0.00328555,-0.00605746,-0.00458327,-0.00002207,
 0.00002111,-0.00001045,-0.00000999,0.00001162,0.00000518,0.00000106,0.
 00000009,-0.00000455,-0.00699357,-0.35178225,0.03339146,0.00007899,0.0
 0005406,0.00001214,0.00722423,0.36658367,0.00006955,0.00015451,-0.0000
 0919,-0.00001061,-0.00005247,-0.00003549,0.00005717,0.00004224,-0.0000
 0558,0.00001387,-0.00002448,-0.00002679,-0.00000084,-0.00003630,0.0000
 0409,-0.00002701,-0.00001528,0.00003390,-0.00001533,0.00001794,-0.0000
 0215,-0.00093947,0.02141539,0.00512618,-0.00000032,-0.00000788,-0.0000
 0645,-0.00000690,-0.00000282,-0.00000776,0.00001917,-0.00000308,-0.000
 00826,0.01246564,0.03085834,-0.05242506,-0.00003942,-0.00001214,0.0000
 3370,-0.01242516,-0.03525443,0.04428721,0.00008348,0.00008969,0.000208
 36,-0.00004911,-0.00003496,-0.00011678,0.00002402,0.00006434,0.0000174
 5,0.00007021,0.00003003,-0.00004708,0.00003758,-0.00007784,-0.00004799
 ,-0.00003409,-0.00005557,0.00004899,-0.00007359,0.00001662,0.00000135,
 -0.11471789,0.05745248,0.12120355,0.00000910,-0.00000925,0.00001582,0.
 00000301,-0.00000471,-0.00001551,0.00000606,-0.00000096,-0.00001168,-0
 .00016459,0.00780078,0.00686503,-0.00000425,-0.00000106,0.00001917,-0.
 00362811,-0.00032100,-0.00271784,0.10953964,0.00001389,-0.00002689,-0.
 00005148,-0.00001301,-0.00001063,0.00001922,0.00003251,-0.00001784,-0.
 00000365,0.00000226,-0.00002577,0.00003639,-0.00002103,0.00000663,0.00
 001404,0.00001167,0.00005673,-0.00001648,0.00002336,0.00000884,-0.0000
 0117,0.05826437,-0.10406538,-0.09028762,-0.00002297,0.00001485,-0.0000
 2969,-0.00001120,0.00000088,0.00000420,0.00000096,0.00000505,0.0000004
 7,-0.00844655,0.01199886,0.01321160,-0.00000542,0.00000009,0.00000308,
 0.00033445,0.00041466,-0.00092431,-0.06260559,0.09811939,-0.00000127,-
 0.00003010,-0.00002695,-0.00001861,0.00001566,-0.00000381,0.00003476,0
 .00001627,-0.00001883,0.00003274,0.00004114,0.00004204,0.00002046,-0.0
 0001539,0.00005910,0.00004593,-0.00004599,-0.00000962,0.00001350,-0.00
 000664,0.00000760,0.12106873,-0.08870556,-0.22788520,-0.00001265,0.000
 00656,-0.00000367,-0.00001227,0.00000178,-0.00000721,-0.00001168,-0.00
 000047,-0.00000848,0.00798974,-0.01320838,-0.00769427,0.00000006,0.000
 00455,-0.00000826,-0.00278149,0.00013267,-0.00083886,-0.13288561,0.096
 71959,0.23399930,-0.00101948,0.00016373,-0.00009950,0.00021737,0.00006
 651,-0.00004007,-0.00042219,-0.00018104,-0.00002378,0.00020170,-0.0000
 0688,-0.00028309,-0.00018663,-0.00046131,-0.00029528,-0.00058064,-0.00
 005018,0.00048682,-0.00005164,0.00005482,0.00000681,-0.07366605,0.0152
 5463,0.02263267,0.00007737,-0.00003770,0.00003766,-0.00001925,0.000015
 58,-0.00000790,0.00007021,-0.00000226,0.00003274,0.01342982,-0.0046079
 2,-0.00319024,-0.00002639,-0.00002754,0.00001387,0.00404099,-0.0009386
 4,0.00509124,0.00069960,0.01265909,-0.00108312,0.32320565,-0.00040965,
 -0.00005130,0.00014054,0.00011559,-0.00014509,-0.00002584,-0.00006128,
 0.00038723,0.00027633,0.00000686,0.00020667,-0.00024000,0.00022199,-0.
 00015988,-0.00007015,-0.00013291,-0.00012073,0.00015983,0.00004469,0.0
 0000475,0.00001645,0.02727702,-0.24902683,-0.03110952,0.00003979,-0.00
 008162,-0.00005652,-0.00002613,-0.00000159,-0.00002775,-0.00003003,-0.
 00002577,-0.00004113,-0.01931329,-0.05320163,0.03490617,0.00004304,0.0
 0003201,0.00002447,-0.00087875,-0.00080028,0.00213734,-0.00200110,-0.0
 0029469,0.00325027,0.03793118,0.62928900,-0.00003210,0.00043802,0.0000
 7489,0.00007177,-0.00016542,0.00011196,-0.00005154,-0.00013583,-0.0001
 2418,-0.00028309,0.00023998,-0.00007408,0.00016139,0.00012920,0.000464
 51,0.00018208,-0.00013880,-0.00011621,0.00000700,-0.00002228,-0.000009
 19,0.02201064,-0.01253275,-0.09395664,0.00016275,-0.00027124,0.0000744
 4,-0.00001325,-0.00000767,0.00001585,-0.00004708,-0.00003638,0.0000420
 5,-0.00262798,0.01182105,0.01377372,-0.00001560,-0.00002630,-0.0000267
 9,0.00514770,0.00217384,-0.00121198,-0.00019747,-0.02037828,0.00205915
 ,-0.31488954,-0.09612287,0.64836356,0.00016385,0.00032470,-0.00012329,
 -0.00011402,-0.00052468,0.00018920,-0.00043467,0.00014737,-0.00019582,
 -0.00042218,0.00006129,-0.00005154,-0.00000699,-0.00011197,0.00000128,
 -0.00049083,0.00003253,-0.00001676,0.00004625,-0.00001537,-0.00002741,
 0.00265775,0.03118742,0.01122254,-0.00001273,-0.00033378,0.00001134,0.
 00001957,0.00000351,0.00000400,0.00002402,-0.00003251,0.00003476,0.001
 56502,0.00688836,0.00978689,0.00006590,0.00000292,0.00005717,-0.001524
 67,0.00098220,0.00222953,0.00130002,0.00099051,0.00095171,-0.18426415,
 0.02077968,0.19522619,0.32325770,0.00033909,-0.00083819,-0.00048714,-0
 .00029190,0.00019607,0.00029810,-0.00014738,0.00004944,-0.00009600,0.0
 0018105,0.00038722,0.00013578,0.00009599,-0.00007892,0.00031129,0.0002
 2824,-0.00047836,-0.00021527,0.00018752,-0.00005988,0.00002254,0.01649
 723,-0.02295772,-0.02479588,0.00005972,0.00000429,0.00018354,0.0000783
 6,-0.00000538,-0.00004047,-0.00006434,-0.00001784,-0.00001627,0.005333
 05,-0.05472969,-0.00537423,0.00008097,0.00005149,-0.00004225,0.0014690
 6,-0.00057162,-0.00228192,-0.00018716,-0.00587938,0.00085051,0.0268395
 3,-0.10638430,-0.04085746,-0.09302545,0.67417295,-0.00014903,-0.000736
 84,-0.00020217,-0.00010638,0.00003594,-0.00008777,-0.00019580,0.000096
 00,0.00006434,-0.00002380,-0.00027638,-0.00012416,-0.00008476,0.000182
 66,-0.00035629,0.00001309,0.00004965,0.00021832,0.00000561,-0.00002455
 ,-0.00000127,0.01176735,-0.04778710,-0.00548848,-0.00016131,0.00011455
 ,0.00000543,0.00003125,0.00000405,-0.00001312,0.00001746,0.00000365,-0
 .00001883,0.01014330,-0.00714411,-0.00810948,0.00003486,0.00001208,-0.
 00000558,0.00208270,-0.00157278,-0.00359442,0.00103730,-0.00109875,0.0
 0034316,0.19492019,-0.03028187,-0.37702676,-0.28846041,0.11132577,0.59
 876560,0.00009739,-0.00008511,0.00008210,-0.00001359,0.00003593,-0.000
 09163,0.00001957,-0.00007836,0.00003126,-0.00001925,0.00002613,-0.0000
 1325,0.00002554,0.00006539,0.00000507,0.00009122,0.00000874,-0.0000135
 2,-0.00003797,-0.00002208,0.00000152,0.00290939,0.00441877,-0.00456288
 ,-0.00007929,0.00006574,0.00001803,0.00001242,-0.00000995,0.00000259,0
 .00000301,0.00001120,-0.00001227,0.00106653,0.00172117,0.00122809,0.00
 000132,0.00000999,-0.00000690,0.00068587,0.00013416,-0.00002331,-0.000
 51961,-0.00050170,-0.00026469,-0.07630120,-0.07059833,0.06871771,0.001
 09549,-0.01267121,0.00623698,0.06808007,0.00010718,-0.00010426,0.00009
 023,-0.00002092,0.00003147,-0.00002552,-0.00000351,-0.00000538,-0.0000
 0405,-0.00001558,-0.00000159,0.00000767,0.00000183,0.00002917,-0.00001
 812,0.00001160,0.00000360,-0.00002514,-0.00003307,-0.00001225,-0.00000
 239,-0.01020019,-0.00735838,0.01712200,-0.00002377,0.00003303,0.000018
 32,0.00000995,0.00000115,0.00000216,0.00000471,0.00000088,-0.00000179,
 0.00056388,-0.00517213,-0.00046777,0.00002144,0.00001162,0.00000282,-0
 .00055516,-0.00030644,0.00096853,0.00023398,0.00070841,-0.00047291,-0.
 07146605,-0.21207910,0.12887556,0.00344722,0.00836988,-0.00592640,0.07
 728754,0.21549651,0.00002137,-0.00003242,-0.00001723,-0.00003533,0.000
 02520,-0.00000608,0.00000400,0.00004047,-0.00001312,-0.00000790,0.0000
 2776,0.00001585,0.00004106,0.00003103,0.00006703,0.00009798,-0.0000885
 1,-0.00001317,0.00000140,-0.00000388,0.00000536,-0.00352752,-0.0066514
 1,0.00654817,0.00000786,0.00000433,0.00001349,0.00000259,-0.00000216,-
 0.00000955,-0.00001551,-0.00000420,-0.00000720,0.00133494,-0.00237830,
 -0.00011655,-0.00001445,-0.00000518,-0.00000776,0.00000776,-0.00017008
 ,0.00066756,-0.00030837,0.00070485,-0.00024813,0.06874819,0.12748115,-
 0.15822013,0.00507153,0.02053172,-0.00532737,-0.07585140,-0.13945971,0
 .15837864,0.00005106,-0.00006089,0.00003702,0.00001778,-0.00001684,-0.
 00000168,-0.00001272,-0.00005973,-0.00016131,0.00007737,-0.00003978,0.
 00016276,-0.00005309,-0.00010871,0.00004050,-0.00002019,0.00015233,-0.
 00001004,0.00000494,0.00002484,0.00000708,0.00373074,0.00039754,0.0055
 6837,-0.00011674,0.00007962,-0.00013295,-0.00007929,0.00002378,0.00000
 786,0.00000910,0.00002297,-0.00001266,-0.00079478,-0.00184537,0.001016
 88,0.00000562,0.00002207,-0.00000032,0.00181056,-0.00015777,0.00053711
 ,0.00048021,0.00068986,0.00016909,0.00265856,0.01363650,0.00343865,-0.
 06243620,0.07629678,0.04611958,-0.00354897,-0.00053517,-0.00281890,0.0
 5594299,0.00007121,-0.00004461,0.00005364,-0.00002137,-0.00006312,0.00
 001238,0.00033378,0.00000426,-0.00011455,0.00003770,-0.00008160,0.0002
 7125,-0.00008480,-0.00005535,0.00002727,-0.00001322,0.00019563,-0.0000
 4445,0.00000025,0.00000997,0.00000212,0.00040825,0.00025289,-0.0001127
 7,-0.00007962,0.00010749,-0.00010303,-0.00006574,0.00003303,-0.0000043
 4,0.00000925,0.00001485,-0.00000656,-0.00129209,-0.00288323,0.00234945
 ,0.00001990,0.00002111,0.00000788,0.00058369,-0.00031586,-0.00076861,0
 .00001666,0.00017950,0.00000904,-0.00216256,0.00292748,0.00394970,0.07
 708695,-0.28442534,-0.10435332,0.00005776,0.00022858,-0.00059614,-0.08
 287022,0.29324731,0.00006476,-0.00005604,0.00001777,0.00005029,-0.0000
 1655,-0.00007594,0.00001130,-0.00018354,0.00000546,0.00003766,0.000056
 53,0.00007441,-0.00003761,-0.00003282,-0.00001487,-0.00002429,0.000138
 22,-0.00003317,-0.00000272,-0.00000979,0.00000124,0.00571470,-0.000096
 24,-0.00202695,-0.00013294,0.00010301,-0.00011998,0.00001804,-0.000018
 32,0.00001349,0.00001582,0.00002969,-0.00000367,0.00095848,0.00307846,
 -0.00199723,0.00000729,0.00001044,-0.00000646,0.00054599,0.00039508,0.
 00129335,0.00021976,-0.00113420,0.00033211,0.00470920,-0.02218203,-0.0
 0047724,0.04573976,-0.10171657,-0.09593233,-0.00290974,0.00048793,-0.0
 0073345,-0.04887013,0.11137081,0.09160447,-0.00061313,-0.00012675,-0.0
 0059317,0.00006416,-0.00013295,-0.00011452,-0.00011400,0.00029190,-0.0
 0010640,0.00021737,-0.00011560,0.00007179,0.00007043,-0.00057853,-0.00
 067641,-0.00109036,0.00016971,0.00013665,-0.00002352,0.00000051,0.0000
 4216,-0.01010733,-0.00571578,0.02670031,0.00001778,0.00002137,0.000050
 29,-0.00001359,0.00002092,-0.00003533,-0.00004911,0.00001301,-0.000018
 61,-0.09689860,0.03750177,0.03641088,0.00000573,-0.00002207,-0.0000106
 1,0.00055217,-0.00339550,-0.00422932,0.00792370,-0.00103489,0.00657296
 ,-0.00826896,-0.00575966,0.02396325,-0.07759775,-0.01973455,0.00844962
 ,0.00729198,0.00130300,0.00726250,0.00144646,0.00789567,-0.00638552,0.
 54391928,-0.00029564,0.00031102,-0.00026783,0.00013293,-0.00024807,0.0
 0008046,0.00052470,0.00019603,-0.00003596,-0.00006653,-0.00014507,0.00
 016543,-0.00013234,-0.00027541,-0.00031357,-0.00071257,0.00008515,0.00
 019080,0.00000632,-0.00002643,0.00001421,0.00005484,0.00460856,-0.0003
 5261,0.00001684,-0.00006312,0.00001655,-0.00003594,0.00003147,-0.00002
 520,0.00003495,-0.00001063,-0.00001566,0.04752708,-0.14766991,-0.07205
 896,0.00005713,0.00000884,0.00005247,0.01077847,-0.00710411,-0.0171790
 4,-0.00067207,-0.00206818,0.00191059,-0.01124993,-0.00102265,0.0192320
 0,-0.02978636,-0.20472022,0.05730746,0.00091745,-0.00042300,-0.0005527
 1,-0.00640447,-0.00970806,0.01086043,0.01766520,0.45424745,-0.00041799
 ,0.00024538,-0.00080505,-0.00011453,-0.00008045,-0.00013192,0.00018915
 ,-0.00029813,-0.00008774,-0.00004006,0.00002586,0.00011194,-0.00001859
 ,0.00017647,0.00042860,0.00054866,0.00012383,-0.00033184,-0.00007654,0
 .00003997,0.00004069,0.02530766,0.00821831,-0.03701892,-0.00000169,-0.
 00001239,-0.00007594,-0.00009163,0.00002552,-0.00000608,-0.00011678,-0
 .00001922,-0.00000380,0.03698215,-0.05638327,-0.12769693,-0.00007377,-
 0.00003718,-0.00003549,-0.00526792,0.00593588,0.00598961,0.00643626,0.
 00270978,0.00112976,0.02302963,0.01042447,-0.03307609,0.01015769,0.041
 69411,-0.09109344,0.00726719,-0.00132687,0.00003261,-0.00527582,-0.012
 28763,0.00753626,-0.02691782,-0.02407206,0.57593155,0.00029842,-0.0000
 0781,0.00043377,-0.00061312,0.00029562,-0.00041803,0.00016384,-0.00033
 912,-0.00014897,-0.00101948,0.00040966,-0.00003214,-0.00117708,0.00102
 104,0.00080893,0.00065595,-0.00061076,-0.00130807,-0.00010773,-0.00005
 129,0.00006000,-0.00021290,0.00218767,-0.00035857,0.00005106,-0.000071
 21,0.00006477,0.00009739,-0.00010718,0.00002138,0.00008348,-0.00001389
 ,-0.00000127,-0.01004949,-0.00216197,0.00212402,0.00007339,0.00007901,
 0.00006954,0.00068419,0.00023772,0.00053987,0.00042414,-0.00008834,0.0
 0044861,0.00013575,-0.00074490,-0.00186590,-0.00327033,-0.00082377,0.0
 0159872,0.00004693,-0.00003506,0.00006951,0.00055009,-0.00018025,0.000
 52792,-0.29903770,-0.03888267,0.02198914,0.32347610,0.00000785,0.00027
 023,-0.00002283,0.00012671,0.00031101,-0.00024546,-0.00032473,-0.00083
 808,0.00073689,-0.00016372,-0.00005135,-0.00043801,0.00017064,0.001176
 31,0.00044642,0.00080379,-0.00060633,-0.00023811,-0.00002527,-0.000095
 36,0.00000123,-0.00025879,-0.00302480,-0.00410313,0.00006089,-0.000044
 61,0.00005605,0.00008511,-0.00010426,0.00003243,-0.00008967,-0.0000268
 9,0.00003011,0.02154434,0.00512502,-0.00084788,-0.00023323,-0.00013153
 ,-0.00015450,-0.00091625,-0.00006376,0.00007838,-0.00119918,0.00037682
 ,-0.00107320,0.00093446,-0.00464505,0.00287663,-0.02825044,-0.00182032
 ,0.00299420,0.00143221,0.00034342,0.00165636,0.00126682,0.00023473,0.0
 0007148,-0.03942706,-0.04534432,0.00179451,0.04171687,0.04828676,0.000
 43377,0.00002270,-0.00112140,-0.00059317,0.00026775,-0.00080506,-0.000
 12325,0.00048719,-0.00020228,-0.00009949,-0.00014053,0.00007494,-0.000
 03179,0.00018846,-0.00006454,-0.00023493,-0.00057726,0.00015183,0.0002
 4926,0.00000575,0.00005292,0.00110382,-0.00127566,-0.00173943,0.000037
 01,-0.00005364,0.00001777,0.00008209,-0.00009022,-0.00001723,0.0002083
 7,0.00005148,-0.00002695,0.01782815,0.00478453,-0.00315369,-0.00002872
 ,0.00003437,-0.00000918,-0.00068968,-0.00013662,0.00017352,-0.00113558
 ,0.00021527,-0.00150302,0.00103043,0.00066675,-0.00028999,0.01044754,0
 .00078404,-0.00305137,-0.00068811,0.00005857,-0.00108181,-0.00033735,-
 0.00003651,0.00018948,0.02684956,0.00248775,-0.03292934,-0.02611020,-0
 .00365726,0.04364521,-0.00010773,0.00002529,0.00024926,-0.00002352,-0.
 00000632,-0.00007654,0.00004625,-0.00018752,0.00000563,-0.00005164,-0.
 00004469,0.00000701,-0.00001760,0.00015131,0.00007620,0.00021318,0.000
 11274,-0.00010173,-0.00010598,0.00001383,0.00000430,-0.00097052,0.0007
 5795,0.00146711,0.00000494,-0.00000025,-0.00000272,-0.00003797,0.00003
 307,0.00000139,-0.00007359,-0.00002335,0.00001350,0.00322633,-0.002397
 54,0.01304808,-0.00000472,-0.00001172,-0.00001533,0.00020405,-0.000059
 05,-0.00058760,-0.00140952,-0.00027223,-0.00027689,0.00006954,-0.00014
 032,0.00093441,0.00037894,-0.00074081,0.00672348,-0.00090685,-0.000103
 85,-0.00009130,0.00027651,0.00024880,-0.00025803,-0.06769501,0.0105226
 0,-0.09349441,-0.01125291,0.00273864,-0.02819773,0.07823782,0.00005130
 ,-0.00009536,-0.00000574,-0.00000051,-0.00002644,-0.00003997,0.0000153
 6,-0.00005988,0.00002456,-0.00005482,0.00000476,0.00002228,-0.00000103
 ,0.00006475,0.00001484,0.00008293,0.00001283,-0.00002664,-0.00001383,-
 0.00000506,-0.00000001,0.00365389,-0.00309098,-0.00163664,-0.00002484,
 0.00000997,0.00000979,0.00002208,-0.00001225,0.00000388,-0.00001662,0.
 00000884,0.00000664,-0.00893522,0.00370429,-0.01990116,-0.00000719,-0.
 00000902,-0.00001794,0.00036948,-0.00000831,0.00089011,0.00146588,0.00
 049806,0.00060001,-0.00272753,-0.00480661,0.00095930,0.01014588,-0.000
 26416,0.02707608,-0.00222544,0.00020479,-0.00055817,-0.00051414,0.0001
 2032,-0.00115598,0.01116029,-0.04065936,0.02310309,-0.00182937,0.00067
 234,-0.00408691,-0.01061654,0.04373648,0.00006000,-0.00000122,0.000052
 92,0.00004216,-0.00001421,0.00004070,-0.00002741,-0.00002254,-0.000001
 27,0.00000682,-0.00001646,-0.00000919,0.00000189,-0.00001230,-0.000035
 88,-0.00006211,0.00004351,-0.00000401,0.00000431,0.00000001,0.00000078
 ,0.00052365,-0.00175738,-0.00116084,0.00000708,-0.00000212,0.00000124,
 0.00000152,0.00000239,0.00000536,0.00000135,0.00000117,0.00000759,-0.0
 0564639,0.00360239,-0.01584765,0.00000270,-0.00000313,-0.00000215,0.00
 075637,-0.00031814,0.00056289,0.00141088,0.00028714,0.00028408,-0.0008
 2695,0.00067391,-0.00037084,-0.00225591,-0.00021396,-0.00896401,0.0008
 4715,0.00009685,0.00007285,0.00051627,0.00037434,0.00035326,-0.0974222
 5,0.02255546,-0.26790844,0.00148698,0.00000572,0.00168960,0.10057191,-
 0.02528143,0.29123301\\0.00000053,0.00001045,-0.00000989,-0.00003311,-
 0.00003168,0.00003441,0.00002764,0.00002668,-0.00002459,-0.00001498,0.
 00003767,0.00001855,-0.00001796,-0.00000759,0.00002672,0.00002210,-0.0
 0002924,-0.00002546,0.00002002,0.00000699,-0.00001605,0.00001750,-0.00
 000761,-0.00002699,-0.00000668,-0.00001683,-0.00000049,0.00000314,-0.0
 0002227,-0.00001002,0.00000407,0.00000706,-0.00001743,-0.00002189,-0.0
 0002921,0.00002560,-0.00000354,0.00001876,-0.00000114,0.00000358,0.000
 01876,0.00000116,-0.00000408,0.00000707,0.00001742,0.00001547,0.000037
 69,-0.00001827,-0.00002798,0.00002667,0.00002440,-0.00000312,-0.000022
 27,0.00001003,0.00000665,-0.00001684,0.00000047,0.00003322,-0.00003169
 ,-0.00003434,-0.00000055,0.00001051,0.00000988,-0.00002002,0.00000693,
 0.00001605\\\@


 MATERIAL COPIED FROM ONE SCHOLARLY BOOK WITHOUT CREDIT COMPRISES PLAGIARISM.
 MATERIAL COPIED FROM TWO SCHOLARLY BOOKS COMPRISES AN ESSAY.
 MATERIAL COPIED FROM THREE SCHOLARLY BOOKS COMPRISES A DISSERTATION.
 MATERIAL COPIED FROM FOUR SCHOLARLY BOOKS COMPRISES A FIFTH SCHOLARLY BOOK.

                               -- C&EN, 25 FEB 1980
 Job cpu time:       0 days  0 hours 28 minutes 21.7 seconds.
 File lengths (MBytes):  RWF=    101 Int=      0 D2E=      0 Chk=      5 Scr=      1
 Normal termination of Gaussian 09 at Sat May 30 21:58:05 2015.
