 Entering Gaussian System, Link 0=g09
 Initial command:
 /usr/local/research/Gaussian09/g09-revD.01/g09/l1.exe "/scratch/lein/Gau-4269.inp" -scrdir="/scratch/lein/"
 Entering Link 1 = /usr/local/research/Gaussian09/g09-revD.01/g09/l1.exe PID=      4272.
  
 Copyright (c) 1988,1990,1992,1993,1995,1998,2003,2009,2013,
            Gaussian, Inc.  All Rights Reserved.
  
 This is part of the Gaussian(R) 09 program.  It is based on
 the Gaussian(R) 03 system (copyright 2003, Gaussian, Inc.),
 the Gaussian(R) 98 system (copyright 1998, Gaussian, Inc.),
 the Gaussian(R) 94 system (copyright 1995, Gaussian, Inc.),
 the Gaussian 92(TM) system (copyright 1992, Gaussian, Inc.),
 the Gaussian 90(TM) system (copyright 1990, Gaussian, Inc.),
 the Gaussian 88(TM) system (copyright 1988, Gaussian, Inc.),
 the Gaussian 86(TM) system (copyright 1986, Carnegie Mellon
 University), and the Gaussian 82(TM) system (copyright 1983,
 Carnegie Mellon University). Gaussian is a federally registered
 trademark of Gaussian, Inc.
  
 This software contains proprietary and confidential information,
 including trade secrets, belonging to Gaussian, Inc.
  
 This software is provided under written license and may be
 used, copied, transmitted, or stored only in accord with that
 written license.
  
 The following legend is applicable only to US Government
 contracts under FAR:
  
                    RESTRICTED RIGHTS LEGEND
  
 Use, reproduction and disclosure by the US Government is
 subject to restrictions as set forth in subparagraphs (a)
 and (c) of the Commercial Computer Software - Restricted
 Rights clause in FAR 52.227-19.
  
 Gaussian, Inc.
 340 Quinnipiac St., Bldg. 40, Wallingford CT 06492
  
  
 ---------------------------------------------------------------
 Warning -- This program may not be used in any manner that
 competes with the business of Gaussian, Inc. or will provide
 assistance to any competitor of Gaussian, Inc.  The licensee
 of this program is prohibited from giving any competitor of
 Gaussian, Inc. access to this program.  By using this program,
 the user acknowledges that Gaussian, Inc. is engaged in the
 business of creating and licensing software in the field of
 computational chemistry and represents and warrants to the
 licensee that it is not a competitor of Gaussian, Inc. and that
 it will not use this program in any manner prohibited above.
 ---------------------------------------------------------------
  

 Cite this work as:
 Gaussian 09, Revision D.01,
 M. J. Frisch, G. W. Trucks, H. B. Schlegel, G. E. Scuseria, 
 M. A. Robb, J. R. Cheeseman, G. Scalmani, V. Barone, B. Mennucci, 
 G. A. Petersson, H. Nakatsuji, M. Caricato, X. Li, H. P. Hratchian, 
 A. F. Izmaylov, J. Bloino, G. Zheng, J. L. Sonnenberg, M. Hada, 
 M. Ehara, K. Toyota, R. Fukuda, J. Hasegawa, M. Ishida, T. Nakajima, 
 Y. Honda, O. Kitao, H. Nakai, T. Vreven, J. A. Montgomery, Jr., 
 J. E. Peralta, F. Ogliaro, M. Bearpark, J. J. Heyd, E. Brothers, 
 K. N. Kudin, V. N. Staroverov, T. Keith, R. Kobayashi, J. Normand, 
 K. Raghavachari, A. Rendell, J. C. Burant, S. S. Iyengar, J. Tomasi, 
 M. Cossi, N. Rega, J. M. Millam, M. Klene, J. E. Knox, J. B. Cross, 
 V. Bakken, C. Adamo, J. Jaramillo, R. Gomperts, R. E. Stratmann, 
 O. Yazyev, A. J. Austin, R. Cammi, C. Pomelli, J. W. Ochterski, 
 R. L. Martin, K. Morokuma, V. G. Zakrzewski, G. A. Voth, 
 P. Salvador, J. J. Dannenberg, S. Dapprich, A. D. Daniels, 
 O. Farkas, J. B. Foresman, J. V. Ortiz, J. Cioslowski, 
 and D. J. Fox, Gaussian, Inc., Wallingford CT, 2013.
 
 ******************************************
 Gaussian 09:  EM64L-G09RevD.01 24-Apr-2013
                18-Mar-2015 
 ******************************************
 %chk=g09-f3bnh2cho.chk
 ----------------------------------------------------------------------
 #p pbe1pbe def2svp opt freq pop(hirshfeld) density=current iop(7/33=1)
  iop(6/80=1)
 ----------------------------------------------------------------------
 1/14=-1,18=20,19=15,26=3,38=1/1,3;
 2/9=110,12=2,17=6,18=5,40=1/2;
 3/5=43,7=101,11=2,16=1,25=1,30=1,71=1,74=-13/1,2,3;
 4//1;
 5/5=2,38=5/2;
 6/7=2,8=2,9=2,10=2,22=-1,28=1,79=1,80=1/1;
 7/33=1/1,2,3,16;
 1/14=-1,18=20,19=15,26=3/3(2);
 2/9=110/2;
 99//99;
 2/9=110/2;
 3/5=43,7=101,11=2,16=1,25=1,30=1,71=1,74=-13/1,2,3;
 4/5=5,16=3,69=1/1;
 5/5=2,38=5/2;
 7/33=1/1,2,3,16;
 1/14=-1,18=20,19=15,26=3/3(-5);
 2/9=110/2;
 6/7=2,8=2,9=2,10=2,19=2,22=-1,28=1,79=1,80=1/1;
 99/9=1/99;
 Leave Link    1 at Wed Mar 18 14:11:36 2015, MaxMem=           0 cpu:         0.0
 (Enter /usr/local/research/Gaussian09/g09-revD.01/g09/l101.exe)
 ------------------
 -- F3B...NH2CHO --
 ------------------
 Symbolic Z-matrix:
 Charge =  0 Multiplicity = 1
 F                    -1.9569    0.20534   1.19398 
 B                    -0.60385   0.17936   1.147 
 F                     0.0203    1.35151   1.39207 
 F                    -0.0228   -0.91855   1.69644 
 C                     1.10757  -0.13088  -0.89274 
 O                     1.67763   0.74371  -1.45632 
 N                    -0.29829  -0.08425  -0.61284 
 H                     1.57716  -1.04281  -0.50181 
 H                    -0.7559   -0.96831  -0.82642 
 H                    -0.74492   0.66487  -1.13935 
 
 Add virtual bond connecting atoms N7         and B2         Dist= 3.41D+00.
 NAtoms=     10 NQM=       10 NQMF=       0 NMMI=      0 NMMIF=      0
                NMic=       0 NMicF=      0.
                    Isotopes and Nuclear Properties:
 (Nuclear quadrupole moments (NQMom) in fm**2, nuclear magnetic moments (NMagM)
  in nuclear magnetons)

  Atom         1           2           3           4           5           6           7           8           9          10
 IAtWgt=          19          11          19          19          12          16          14           1           1           1
 AtmWgt=  18.9984033  11.0093053  18.9984033  18.9984033  12.0000000  15.9949146  14.0030740   1.0078250   1.0078250   1.0078250
 NucSpn=           1           3           1           1           0           0           2           1           1           1
 AtZEff=   0.0000000   0.0000000   0.0000000   0.0000000   0.0000000   0.0000000   0.0000000   0.0000000   0.0000000   0.0000000
 NQMom=    0.0000000   4.0590000   0.0000000   0.0000000   0.0000000   0.0000000   2.0440000   0.0000000   0.0000000   0.0000000
 NMagM=    2.6288670   2.6886370   2.6288670   2.6288670   0.0000000   0.0000000   0.4037610   2.7928460   2.7928460   2.7928460
 AtZNuc=   9.0000000   5.0000000   9.0000000   9.0000000   6.0000000   8.0000000   7.0000000   1.0000000   1.0000000   1.0000000
 Leave Link  101 at Wed Mar 18 14:11:37 2015, MaxMem=    33554432 cpu:         0.2
 (Enter /usr/local/research/Gaussian09/g09-revD.01/g09/l103.exe)

 GradGradGradGradGradGradGradGradGradGradGradGradGradGradGradGradGradGrad
 Berny optimization.
 Initialization pass.
                           ----------------------------
                           !    Initial Parameters    !
                           ! (Angstroms and Degrees)  !
 --------------------------                            --------------------------
 ! Name  Definition              Value          Derivative Info.                !
 --------------------------------------------------------------------------------
 ! R1    R(1,2)                  1.3541         estimate D2E/DX2                !
 ! R2    R(2,3)                  1.3504         estimate D2E/DX2                !
 ! R3    R(2,4)                  1.3583         estimate D2E/DX2                !
 ! R4    R(2,7)                  1.8055         estimate D2E/DX2                !
 ! R5    R(5,6)                  1.1864         estimate D2E/DX2                !
 ! R6    R(5,7)                  1.4342         estimate D2E/DX2                !
 ! R7    R(5,8)                  1.0977         estimate D2E/DX2                !
 ! R8    R(7,9)                  1.0181         estimate D2E/DX2                !
 ! R9    R(7,10)                 1.0188         estimate D2E/DX2                !
 ! A1    A(1,2,3)              116.0329         estimate D2E/DX2                !
 ! A2    A(1,2,4)              115.3991         estimate D2E/DX2                !
 ! A3    A(1,2,7)              101.8717         estimate D2E/DX2                !
 ! A4    A(3,2,4)              115.4984         estimate D2E/DX2                !
 ! A5    A(3,2,7)              103.0266         estimate D2E/DX2                !
 ! A6    A(4,2,7)              101.7634         estimate D2E/DX2                !
 ! A7    A(6,5,7)              122.6663         estimate D2E/DX2                !
 ! A8    A(6,5,8)              125.1733         estimate D2E/DX2                !
 ! A9    A(7,5,8)              112.1383         estimate D2E/DX2                !
 ! A10   A(2,7,5)              111.153          estimate D2E/DX2                !
 ! A11   A(2,7,9)              104.7845         estimate D2E/DX2                !
 ! A12   A(2,7,10)             108.7954         estimate D2E/DX2                !
 ! A13   A(5,7,9)              111.802          estimate D2E/DX2                !
 ! A14   A(5,7,10)             110.6574         estimate D2E/DX2                !
 ! A15   A(9,7,10)             109.4535         estimate D2E/DX2                !
 ! D1    D(1,2,7,5)            179.3893         estimate D2E/DX2                !
 ! D2    D(1,2,7,9)            -59.6808         estimate D2E/DX2                !
 ! D3    D(1,2,7,10)            57.2986         estimate D2E/DX2                !
 ! D4    D(3,2,7,5)             58.7947         estimate D2E/DX2                !
 ! D5    D(3,2,7,9)            179.7246         estimate D2E/DX2                !
 ! D6    D(3,2,7,10)           -63.2961         estimate D2E/DX2                !
 ! D7    D(4,2,7,5)            -61.1732         estimate D2E/DX2                !
 ! D8    D(4,2,7,9)             59.7567         estimate D2E/DX2                !
 ! D9    D(4,2,7,10)           176.7361         estimate D2E/DX2                !
 ! D10   D(6,5,7,2)           -107.9484         estimate D2E/DX2                !
 ! D11   D(6,5,7,9)            135.3415         estimate D2E/DX2                !
 ! D12   D(6,5,7,10)            13.0548         estimate D2E/DX2                !
 ! D13   D(8,5,7,2)             70.4257         estimate D2E/DX2                !
 ! D14   D(8,5,7,9)            -46.2844         estimate D2E/DX2                !
 ! D15   D(8,5,7,10)          -168.5712         estimate D2E/DX2                !
 --------------------------------------------------------------------------------
 Trust Radius=3.00D-01 FncErr=1.00D-07 GrdErr=1.00D-06
 Number of steps in this run=     49 maximum allowed number of steps=    100.
 GradGradGradGradGradGradGradGradGradGradGradGradGradGradGradGradGradGrad

 Leave Link  103 at Wed Mar 18 14:11:37 2015, MaxMem=    33554432 cpu:         0.0
 (Enter /usr/local/research/Gaussian09/g09-revD.01/g09/l202.exe)
                          Input orientation:                          
 ---------------------------------------------------------------------
 Center     Atomic      Atomic             Coordinates (Angstroms)
 Number     Number       Type             X           Y           Z
 ---------------------------------------------------------------------
      1          9           0       -1.956901    0.205341    1.193978
      2          5           0       -0.603849    0.179362    1.146996
      3          9           0        0.020301    1.351507    1.392072
      4          9           0       -0.022800   -0.918553    1.696440
      5          6           0        1.107572   -0.130877   -0.892742
      6          8           0        1.677631    0.743712   -1.456321
      7          7           0       -0.298295   -0.084246   -0.612838
      8          1           0        1.577162   -1.042807   -0.501815
      9          1           0       -0.755904   -0.968313   -0.826421
     10          1           0       -0.744917    0.664874   -1.139348
 ---------------------------------------------------------------------
                    Distance matrix (angstroms):
                    1          2          3          4          5
     1  F    0.000000
     2  B    1.354116   0.000000
     3  F    2.293962   1.350389   0.000000
     4  F    2.292673   1.358279   2.290779   0.000000
     5  C    3.722692   2.680624   2.932575   2.932922   0.000000
     6  O    4.530314   3.507265   3.351044   3.948986   1.186379
     7  N    2.469700   1.805511   2.486474   2.470775   1.434219
     8  H    4.113780   2.994843   3.426859   2.721698   1.097704
     9  H    2.627141   2.287936   3.302388   2.627688   2.044075
    10  H    2.669173   2.341579   2.732235   3.327218   2.031195
                    6          7          8          9         10
     6  O    0.000000
     7  N    2.302446   0.000000
     8  H    2.028010   2.109148   0.000000
     9  H    3.041364   1.018135   2.356717   0.000000
    10  H    2.444468   1.018756   2.952063   1.662932   0.000000
 Stoichiometry    CH3BF3NO
 Framework group  C1[X(CH3BF3NO)]
 Deg. of freedom    24
 Full point group                 C1      NOp   1
 Largest Abelian subgroup         C1      NOp   1
 Largest concise Abelian subgroup C1      NOp   1
                         Standard orientation:                         
 ---------------------------------------------------------------------
 Center     Atomic      Atomic             Coordinates (Angstroms)
 Number     Number       Type             X           Y           Z
 ---------------------------------------------------------------------
      1          9           0       -1.879833   -0.206691   -0.871417
      2          5           0       -0.951597    0.102462    0.064763
      3          9           0       -0.641893    1.411560    0.182637
      4          9           0       -1.052555   -0.582059    1.233592
      5          6           0        1.682713   -0.376187    0.195343
      6          8           0        2.540348    0.395251   -0.081854
      7          7           0        0.546979   -0.607571   -0.649377
      8          1           0        1.639118   -0.968450    1.118533
      9          1           0        0.343550   -1.600494   -0.745909
     10          1           0        0.695930   -0.200552   -1.571338
 ---------------------------------------------------------------------
 Rotational constants (GHZ):      4.4810207      1.6577220      1.6385261
 Leave Link  202 at Wed Mar 18 14:11:37 2015, MaxMem=    33554432 cpu:         0.0
 (Enter /usr/local/research/Gaussian09/g09-revD.01/g09/l301.exe)
 Standard basis: def2SVP (5D, 7F)
 Ernie: Thresh=  0.10000D-02 Tol=  0.10000D-05 Strict=F.
 There are   120 symmetry adapted cartesian basis functions of A   symmetry.
 There are   113 symmetry adapted basis functions of A   symmetry.
   113 basis functions,   196 primitive gaussians,   120 cartesian basis functions
    28 alpha electrons       28 beta electrons
       nuclear repulsion energy       316.2942580688 Hartrees.
 IExCor= 1009 DFT=T Ex+Corr=PBE1PBE ExCW=0 ScaHFX=  0.250000
 ScaDFX=  0.750000  0.750000  1.000000  1.000000 ScalE2=  1.000000  1.000000
 IRadAn=      0 IRanWt=     -1 IRanGd=            0 ICorTp=0 IEmpDi=  4
 NAtoms=   10 NActive=   10 NUniq=   10 SFac= 1.00D+00 NAtFMM=   60 NAOKFM=F Big=F
 Integral buffers will be    131072 words long.
 Raffenetti 2 integral format.
 Two-electron integral symmetry is turned on.
 Leave Link  301 at Wed Mar 18 14:11:37 2015, MaxMem=    33554432 cpu:         0.1
 (Enter /usr/local/research/Gaussian09/g09-revD.01/g09/l302.exe)
 NPDir=0 NMtPBC=     1 NCelOv=     1 NCel=       1 NClECP=     1 NCelD=      1
         NCelK=      1 NCelE2=     1 NClLst=     1 CellRange=     0.0.
 One-electron integrals computed using PRISM.
   1 Symmetry operations used in ECPInt.
 ECPInt:  NShTT=    1326 NPrTT=    5050 LenC2=    1306 LenP2D=    4015.
 LDataN:  DoStor=T MaxTD1= 4 Len=   56
 NBasis=   113 RedAO= T EigKep=  8.61D-03  NBF=   113
 NBsUse=   113 1.00D-06 EigRej= -1.00D+00 NBFU=   113
 Precomputing XC quadrature grid using
 IXCGrd= 4 IRadAn=           0 IRanWt=          -1 IRanGd=           0 AccXCQ= 0.00D+00.
 Generated NRdTot=       0 NPtTot=           0 NUsed=           0 NTot=          32
 NSgBfM=   120   120   120   120   120 MxSgAt=    10 MxSgA2=    10.
 Leave Link  302 at Wed Mar 18 14:11:37 2015, MaxMem=    33554432 cpu:         0.5
 (Enter /usr/local/research/Gaussian09/g09-revD.01/g09/l303.exe)
 DipDrv:  MaxL=1.
 Leave Link  303 at Wed Mar 18 14:11:37 2015, MaxMem=    33554432 cpu:         0.1
 (Enter /usr/local/research/Gaussian09/g09-revD.01/g09/l401.exe)
 ExpMin= 8.36D-02 ExpMax= 2.89D+03 ExpMxC= 4.35D+02 IAcc=2 IRadAn=         4 AccDes= 0.00D+00
 Harris functional with IExCor= 1009 and IRadAn=       4 diagonalized for initial guess.
 HarFok:  IExCor= 1009 AccDes= 0.00D+00 IRadAn=         4 IDoV= 1 UseB2=F ITyADJ=14
 ICtDFT=  3500011 ScaDFX=  1.000000  1.000000  1.000000  1.000000
 FoFCou: FMM=F IPFlag=           0 FMFlag=      100000 FMFlg1=           0
         NFxFlg=           0 DoJE=T BraDBF=F KetDBF=T FulRan=T
         wScrn=  0.000000 ICntrl=     500 IOpCl=  0 I1Cent=   200000004 NGrid=           0
         NMat0=    1 NMatS0=      1 NMatT0=    0 NMatD0=    1 NMtDS0=    0 NMtDT0=    0
 Petite list used in FoFCou.
 Harris En= -493.617000270618    
 JPrj=0 DoOrth=F DoCkMO=F.
 Leave Link  401 at Wed Mar 18 14:11:39 2015, MaxMem=    33554432 cpu:         2.0
 (Enter /usr/local/research/Gaussian09/g09-revD.01/g09/l502.exe)
 Closed shell SCF:
 Using DIIS extrapolation, IDIIS=  1040.
 Integral symmetry usage will be decided dynamically.
 Keep R1 ints in memory in canonical form, NReq=21753751.
 IVT=       63374 IEndB=       63374 NGot=    33554432 MDV=    12744598
 LenX=    12744598 LenY=    12729757
 Requested convergence on RMS density matrix=1.00D-08 within 128 cycles.
 Requested convergence on MAX density matrix=1.00D-06.
 Requested convergence on             energy=1.00D-06.
 No special actions if energy rises.
 FoFCou: FMM=F IPFlag=           0 FMFlag=           0 FMFlg1=           0
         NFxFlg=           0 DoJE=F BraDBF=F KetDBF=F FulRan=T
         wScrn=  0.000000 ICntrl=     600 IOpCl=  0 I1Cent=           0 NGrid=           0
         NMat0=    1 NMatS0=   6441 NMatT0=    0 NMatD0=    1 NMtDS0=    0 NMtDT0=    0
 Symmetry not used in FoFCou.
 Integral accuracy reduced to 1.0D-05 until final iterations.

 Cycle   1  Pass 0  IDiag  1:
 E= -493.475146806420    
 DIIS: error= 4.07D-02 at cycle   1 NSaved=   1.
 NSaved= 1 IEnMin= 1 EnMin= -493.475146806420     IErMin= 1 ErrMin= 4.07D-02
 ErrMax= 4.07D-02  0.00D+00 EMaxC= 1.00D-01 BMatC= 1.61D-01 BMatP= 1.61D-01
 IDIUse=3 WtCom= 5.93D-01 WtEn= 4.07D-01
 Coeff-Com:  0.100D+01
 Coeff-En:   0.100D+01
 Coeff:      0.100D+01
 Gap=     0.208 Goal=   None    Shift=    0.000
 GapD=    0.208 DampG=1.000 DampE=0.500 DampFc=0.5000 IDamp=-1.
 Damping current iteration by 5.00D-01
 RMSDP=6.73D-03 MaxDP=1.88D-01              OVMax= 2.23D-01

 Cycle   2  Pass 0  IDiag  1:
 E= -493.500097874988     Delta-E=       -0.024951068568 Rises=F Damp=T
 DIIS: error= 1.31D-02 at cycle   2 NSaved=   2.
 NSaved= 2 IEnMin= 2 EnMin= -493.500097874988     IErMin= 2 ErrMin= 1.31D-02
 ErrMax= 1.31D-02  0.00D+00 EMaxC= 1.00D-01 BMatC= 2.23D-02 BMatP= 1.61D-01
 IDIUse=3 WtCom= 8.69D-01 WtEn= 1.31D-01
 Coeff-Com:  0.222D+00 0.778D+00
 Coeff-En:   0.386D+00 0.614D+00
 Coeff:      0.244D+00 0.756D+00
 Gap=     0.281 Goal=   None    Shift=    0.000
 RMSDP=1.77D-03 MaxDP=3.65D-02 DE=-2.50D-02 OVMax= 1.99D-01

 Cycle   3  Pass 0  IDiag  1:
 E= -493.575902406851     Delta-E=       -0.075804531862 Rises=F Damp=F
 DIIS: error= 9.24D-03 at cycle   3 NSaved=   3.
 NSaved= 3 IEnMin= 3 EnMin= -493.575902406851     IErMin= 3 ErrMin= 9.24D-03
 ErrMax= 9.24D-03  0.00D+00 EMaxC= 1.00D-01 BMatC= 1.35D-02 BMatP= 2.23D-02
 IDIUse=3 WtCom= 9.08D-01 WtEn= 9.24D-02
 Coeff-Com:  0.879D-01 0.443D+00 0.469D+00
 Coeff-En:   0.000D+00 0.000D+00 0.100D+01
 Coeff:      0.798D-01 0.402D+00 0.518D+00
 Gap=     0.281 Goal=   None    Shift=    0.000
 RMSDP=9.35D-04 MaxDP=2.19D-02 DE=-7.58D-02 OVMax= 3.70D-02

 Cycle   4  Pass 0  IDiag  1:
 E= -493.585374192214     Delta-E=       -0.009471785364 Rises=F Damp=F
 DIIS: error= 3.39D-03 at cycle   4 NSaved=   4.
 NSaved= 4 IEnMin= 4 EnMin= -493.585374192214     IErMin= 4 ErrMin= 3.39D-03
 ErrMax= 3.39D-03  0.00D+00 EMaxC= 1.00D-01 BMatC= 1.50D-03 BMatP= 1.35D-02
 IDIUse=3 WtCom= 9.66D-01 WtEn= 3.39D-02
 Coeff-Com:  0.292D-02 0.386D-01 0.259D+00 0.699D+00
 Coeff-En:   0.000D+00 0.000D+00 0.876D-01 0.912D+00
 Coeff:      0.282D-02 0.372D-01 0.253D+00 0.707D+00
 Gap=     0.281 Goal=   None    Shift=    0.000
 RMSDP=2.66D-04 MaxDP=6.06D-03 DE=-9.47D-03 OVMax= 8.15D-03

 Cycle   5  Pass 0  IDiag  1:
 E= -493.586445301437     Delta-E=       -0.001071109223 Rises=F Damp=F
 DIIS: error= 4.06D-04 at cycle   5 NSaved=   5.
 NSaved= 5 IEnMin= 5 EnMin= -493.586445301437     IErMin= 5 ErrMin= 4.06D-04
 ErrMax= 4.06D-04  0.00D+00 EMaxC= 1.00D-01 BMatC= 2.72D-05 BMatP= 1.50D-03
 IDIUse=3 WtCom= 9.96D-01 WtEn= 4.06D-03
 Coeff-Com: -0.118D-02-0.119D-02 0.783D-01 0.270D+00 0.654D+00
 Coeff-En:   0.000D+00 0.000D+00 0.000D+00 0.000D+00 0.100D+01
 Coeff:     -0.118D-02-0.119D-02 0.780D-01 0.269D+00 0.655D+00
 Gap=     0.281 Goal=   None    Shift=    0.000
 RMSDP=4.73D-05 MaxDP=1.30D-03 DE=-1.07D-03 OVMax= 1.09D-03

 Cycle   6  Pass 0  IDiag  1:
 E= -493.586468022019     Delta-E=       -0.000022720582 Rises=F Damp=F
 DIIS: error= 9.05D-05 at cycle   6 NSaved=   6.
 NSaved= 6 IEnMin= 6 EnMin= -493.586468022019     IErMin= 6 ErrMin= 9.05D-05
 ErrMax= 9.05D-05  0.00D+00 EMaxC= 1.00D-01 BMatC= 1.02D-06 BMatP= 2.72D-05
 IDIUse=1 WtCom= 1.00D+00 WtEn= 0.00D+00
 Coeff-Com: -0.349D-03-0.199D-02 0.197D-01 0.676D-01 0.227D+00 0.688D+00
 Coeff:     -0.349D-03-0.199D-02 0.197D-01 0.676D-01 0.227D+00 0.688D+00
 Gap=     0.282 Goal=   None    Shift=    0.000
 RMSDP=9.78D-06 MaxDP=1.79D-04 DE=-2.27D-05 OVMax= 2.79D-04

 Initial convergence to 1.0D-05 achieved.  Increase integral accuracy.
 Cycle   7  Pass 1  IDiag  1:
 E= -493.586453815454     Delta-E=        0.000014206565 Rises=F Damp=F
 DIIS: error= 2.58D-05 at cycle   1 NSaved=   1.
 NSaved= 1 IEnMin= 1 EnMin= -493.586453815454     IErMin= 1 ErrMin= 2.58D-05
 ErrMax= 2.58D-05  0.00D+00 EMaxC= 1.00D-01 BMatC= 1.30D-07 BMatP= 1.30D-07
 IDIUse=1 WtCom= 1.00D+00 WtEn= 0.00D+00
 Coeff-Com:  0.100D+01
 Coeff:      0.100D+01
 Gap=     0.282 Goal=   None    Shift=    0.000
 RMSDP=9.78D-06 MaxDP=1.79D-04 DE= 1.42D-05 OVMax= 1.48D-04

 Cycle   8  Pass 1  IDiag  1:
 E= -493.586453783763     Delta-E=        0.000000031691 Rises=F Damp=F
 DIIS: error= 3.31D-05 at cycle   2 NSaved=   2.
 NSaved= 2 IEnMin= 1 EnMin= -493.586453815454     IErMin= 1 ErrMin= 2.58D-05
 ErrMax= 3.31D-05  0.00D+00 EMaxC= 1.00D-01 BMatC= 1.98D-07 BMatP= 1.30D-07
 IDIUse=1 WtCom= 1.00D+00 WtEn= 0.00D+00
 Coeff-Com:  0.556D+00 0.444D+00
 Coeff:      0.556D+00 0.444D+00
 Gap=     0.282 Goal=   None    Shift=    0.000
 RMSDP=3.06D-06 MaxDP=1.00D-04 DE= 3.17D-08 OVMax= 1.20D-04

 Cycle   9  Pass 1  IDiag  1:
 E= -493.586453933761     Delta-E=       -0.000000149997 Rises=F Damp=F
 DIIS: error= 9.84D-06 at cycle   3 NSaved=   3.
 NSaved= 3 IEnMin= 3 EnMin= -493.586453933761     IErMin= 3 ErrMin= 9.84D-06
 ErrMax= 9.84D-06  0.00D+00 EMaxC= 1.00D-01 BMatC= 9.28D-09 BMatP= 1.30D-07
 IDIUse=1 WtCom= 1.00D+00 WtEn= 0.00D+00
 Coeff-Com:  0.166D+00 0.210D+00 0.624D+00
 Coeff:      0.166D+00 0.210D+00 0.624D+00
 Gap=     0.282 Goal=   None    Shift=    0.000
 RMSDP=1.02D-06 MaxDP=2.64D-05 DE=-1.50D-07 OVMax= 4.11D-05

 Cycle  10  Pass 1  IDiag  1:
 E= -493.586453938306     Delta-E=       -0.000000004545 Rises=F Damp=F
 DIIS: error= 5.89D-06 at cycle   4 NSaved=   4.
 NSaved= 4 IEnMin= 4 EnMin= -493.586453938306     IErMin= 4 ErrMin= 5.89D-06
 ErrMax= 5.89D-06  0.00D+00 EMaxC= 1.00D-01 BMatC= 3.38D-09 BMatP= 9.28D-09
 IDIUse=1 WtCom= 1.00D+00 WtEn= 0.00D+00
 Coeff-Com: -0.471D-02 0.493D-01 0.413D+00 0.543D+00
 Coeff:     -0.471D-02 0.493D-01 0.413D+00 0.543D+00
 Gap=     0.282 Goal=   None    Shift=    0.000
 RMSDP=3.97D-07 MaxDP=1.23D-05 DE=-4.54D-09 OVMax= 2.02D-05

 Cycle  11  Pass 1  IDiag  1:
 E= -493.586453940876     Delta-E=       -0.000000002570 Rises=F Damp=F
 DIIS: error= 7.08D-07 at cycle   5 NSaved=   5.
 NSaved= 5 IEnMin= 5 EnMin= -493.586453940876     IErMin= 5 ErrMin= 7.08D-07
 ErrMax= 7.08D-07  0.00D+00 EMaxC= 1.00D-01 BMatC= 9.12D-11 BMatP= 3.38D-09
 IDIUse=1 WtCom= 1.00D+00 WtEn= 0.00D+00
 Coeff-Com: -0.112D-01 0.102D-01 0.144D+00 0.251D+00 0.606D+00
 Coeff:     -0.112D-01 0.102D-01 0.144D+00 0.251D+00 0.606D+00
 Gap=     0.282 Goal=   None    Shift=    0.000
 RMSDP=7.24D-08 MaxDP=2.20D-06 DE=-2.57D-09 OVMax= 1.89D-06

 Cycle  12  Pass 1  IDiag  1:
 E= -493.586453940942     Delta-E=       -0.000000000066 Rises=F Damp=F
 DIIS: error= 1.25D-07 at cycle   6 NSaved=   6.
 NSaved= 6 IEnMin= 6 EnMin= -493.586453940942     IErMin= 6 ErrMin= 1.25D-07
 ErrMax= 1.25D-07  0.00D+00 EMaxC= 1.00D-01 BMatC= 2.39D-12 BMatP= 9.12D-11
 IDIUse=1 WtCom= 1.00D+00 WtEn= 0.00D+00
 Coeff-Com: -0.316D-02 0.959D-03 0.229D-01 0.583D-01 0.186D+00 0.735D+00
 Coeff:     -0.316D-02 0.959D-03 0.229D-01 0.583D-01 0.186D+00 0.735D+00
 Gap=     0.282 Goal=   None    Shift=    0.000
 RMSDP=1.51D-08 MaxDP=3.42D-07 DE=-6.57D-11 OVMax= 4.00D-07

 Cycle  13  Pass 1  IDiag  1:
 E= -493.586453940951     Delta-E=       -0.000000000009 Rises=F Damp=F
 DIIS: error= 6.67D-08 at cycle   7 NSaved=   7.
 NSaved= 7 IEnMin= 7 EnMin= -493.586453940951     IErMin= 7 ErrMin= 6.67D-08
 ErrMax= 6.67D-08  0.00D+00 EMaxC= 1.00D-01 BMatC= 3.73D-13 BMatP= 2.39D-12
 IDIUse=1 WtCom= 1.00D+00 WtEn= 0.00D+00
 Coeff-Com: -0.725D-04-0.663D-03-0.731D-02-0.146D-02 0.110D-01 0.300D+00
 Coeff-Com:  0.698D+00
 Coeff:     -0.725D-04-0.663D-03-0.731D-02-0.146D-02 0.110D-01 0.300D+00
 Coeff:      0.698D+00
 Gap=     0.282 Goal=   None    Shift=    0.000
 RMSDP=5.13D-09 MaxDP=8.03D-08 DE=-9.09D-12 OVMax= 1.41D-07

 SCF Done:  E(RPBE1PBE) =  -493.586453941     A.U. after   13 cycles
            NFock= 13  Conv=0.51D-08     -V/T= 2.0063
 KE= 4.905131574712D+02 PE=-1.801718637730D+03 EE= 5.013247682488D+02
 Leave Link  502 at Wed Mar 18 14:12:07 2015, MaxMem=    33554432 cpu:        27.4
 (Enter /usr/local/research/Gaussian09/g09-revD.01/g09/l601.exe)
 Copying SCF densities to generalized density rwf, IOpCl= 0 IROHF=0.

 **********************************************************************

            Population analysis using the SCF density.

 **********************************************************************

 Orbital symmetries:
       Occupied  (A) (A) (A) (A) (A) (A) (A) (A) (A) (A) (A) (A)
                 (A) (A) (A) (A) (A) (A) (A) (A) (A) (A) (A) (A)
                 (A) (A) (A) (A)
       Virtual   (A) (A) (A) (A) (A) (A) (A) (A) (A) (A) (A) (A)
                 (A) (A) (A) (A) (A) (A) (A) (A) (A) (A) (A) (A)
                 (A) (A) (A) (A) (A) (A) (A) (A) (A) (A) (A) (A)
                 (A) (A) (A) (A) (A) (A) (A) (A) (A) (A) (A) (A)
                 (A) (A) (A) (A) (A) (A) (A) (A) (A) (A) (A) (A)
                 (A) (A) (A) (A) (A) (A) (A) (A) (A) (A) (A) (A)
                 (A) (A) (A) (A) (A) (A) (A) (A) (A) (A) (A) (A)
                 (A)
 The electronic state is 1-A.
 Alpha  occ. eigenvalues --  -24.74869 -24.74796 -24.74610 -19.26058 -14.49644
 Alpha  occ. eigenvalues --  -10.39682  -6.91091  -1.22337  -1.18047  -1.17972
 Alpha  occ. eigenvalues --   -1.13709  -0.99934  -0.69530  -0.62370  -0.58968
 Alpha  occ. eigenvalues --   -0.55710  -0.54295  -0.52645  -0.52485  -0.49844
 Alpha  occ. eigenvalues --   -0.45984  -0.43347  -0.43262  -0.41346  -0.41167
 Alpha  occ. eigenvalues --   -0.38761  -0.38693  -0.33674
 Alpha virt. eigenvalues --   -0.05514   0.03076   0.06326   0.10159   0.16593
 Alpha virt. eigenvalues --    0.17710   0.20592   0.22829   0.24262   0.25015
 Alpha virt. eigenvalues --    0.31895   0.41660   0.43991   0.45586   0.45809
 Alpha virt. eigenvalues --    0.49241   0.55095   0.55713   0.59303   0.65184
 Alpha virt. eigenvalues --    0.67158   0.77483   0.80359   0.85590   0.90957
 Alpha virt. eigenvalues --    0.99136   1.05981   1.06525   1.10118   1.11392
 Alpha virt. eigenvalues --    1.13309   1.22366   1.26860   1.27142   1.28689
 Alpha virt. eigenvalues --    1.30418   1.31346   1.34512   1.34989   1.36918
 Alpha virt. eigenvalues --    1.40942   1.43264   1.46107   1.52638   1.59433
 Alpha virt. eigenvalues --    1.61164   1.65775   1.71241   1.76201   1.78564
 Alpha virt. eigenvalues --    1.80370   1.86594   1.90912   1.92546   1.97544
 Alpha virt. eigenvalues --    2.05132   2.06998   2.21737   2.35049   2.53696
 Alpha virt. eigenvalues --    2.61226   2.65516   2.71972   2.77636   2.87940
 Alpha virt. eigenvalues --    3.03498   3.05213   3.08282   3.08597   3.08992
 Alpha virt. eigenvalues --    3.09422   3.11092   3.13844   3.15641   3.31557
 Alpha virt. eigenvalues --    3.32361   3.33395   3.35064   3.47922   3.59657
 Alpha virt. eigenvalues --    3.63159   3.63682   3.84662   3.85264   3.86012
          Condensed to atoms (all electrons):
               1          2          3          4          5          6
     1  F    8.801485   0.450368  -0.018573  -0.018841  -0.000512   0.000000
     2  B    0.450368   3.243484   0.449792   0.439573  -0.003349  -0.002488
     3  F   -0.018573   0.449792   8.790309  -0.018518   0.010359  -0.000645
     4  F   -0.018841   0.439573  -0.018518   8.820617   0.001390   0.000046
     5  C   -0.000512  -0.003349   0.010359   0.001390   4.489719   0.671369
     6  O    0.000000  -0.002488  -0.000645   0.000046   0.671369   7.615614
     7  N   -0.029045   0.148134  -0.033611  -0.032209   0.213526  -0.090072
     8  H   -0.000085  -0.001940  -0.000511   0.005253   0.408266  -0.032048
     9  H    0.000976  -0.003385   0.000768   0.000893   0.002148   0.001547
    10  H    0.000296  -0.002646   0.000035   0.000602   0.001741   0.010051
               7          8          9         10
     1  F   -0.029045  -0.000085   0.000976   0.000296
     2  B    0.148134  -0.001940  -0.003385  -0.002646
     3  F   -0.033611  -0.000511   0.000768   0.000035
     4  F   -0.032209   0.005253   0.000893   0.000602
     5  C    0.213526   0.408266   0.002148   0.001741
     6  O   -0.090072  -0.032048   0.001547   0.010051
     7  N    6.438771  -0.086342   0.333011   0.325044
     8  H   -0.086342   0.627317  -0.000641   0.008566
     9  H    0.333011  -0.000641   0.490008  -0.010315
    10  H    0.325044   0.008566  -0.010315   0.486725
 Mulliken charges:
               1
     1  F   -0.186067
     2  B    0.282456
     3  F   -0.179404
     4  F   -0.198805
     5  C    0.205343
     6  O   -0.173372
     7  N   -0.187207
     8  H    0.072165
     9  H    0.184991
    10  H    0.179901
 Sum of Mulliken charges =   0.00000
 Mulliken charges with hydrogens summed into heavy atoms:
               1
     1  F   -0.186067
     2  B    0.282456
     3  F   -0.179404
     4  F   -0.198805
     5  C    0.277508
     6  O   -0.173372
     7  N    0.177685
 Atomic Valencies and Mayer Atomic Bond Orders:
               1          2          3          4          5          6
     1  F    1.265621   1.226513   0.010271   0.009653   0.007083   0.003650
     2  B    1.226513   4.146838   1.229082   1.198912   0.012152   0.009632
     3  F    0.010271   1.229082   1.275485   0.010366   0.025626   0.000076
     4  F    0.009653   1.198912   0.010366   1.248409   0.010234   0.000894
     5  C    0.007083   0.012152   0.025626   0.010234   4.158935   2.174597
     6  O    0.003650   0.009632   0.000076   0.000894   2.174597   2.278775
     7  N    0.002866   0.459267  -0.002868   0.001377   0.963376   0.014237
     8  H    0.000579   0.000786  -0.000875   0.010965   0.935863   0.036984
     9  H    0.002986   0.004690   0.002867   0.002810   0.016611   0.016843
    10  H    0.002020   0.005804   0.000940   0.003197   0.013393   0.021862
               7          8          9         10
     1  F    0.002866   0.000579   0.002986   0.002020
     2  B    0.459267   0.000786   0.004690   0.005804
     3  F   -0.002868  -0.000875   0.002867   0.000940
     4  F    0.001377   0.010965   0.002810   0.003197
     5  C    0.963376   0.935863   0.016611   0.013393
     6  O    0.014237   0.036984   0.016843   0.021862
     7  N    3.283822  -0.011085   0.928192   0.928459
     8  H   -0.011085   0.990489  -0.000417   0.017688
     9  H    0.928192  -0.000417   0.979266   0.004685
    10  H    0.928459   0.017688   0.004685   0.998049
 Lowdin Atomic Charges:
               1
     1  F   -0.026053
     2  B   -0.325785
     3  F   -0.019633
     4  F   -0.035487
     5  C    0.153344
     6  O   -0.092551
     7  N    0.090893
     8  H    0.021524
     9  H    0.118579
    10  H    0.115170
 Sum of Lowdin charges  =   0.00000
 Lowdin atomic charges with hydrogens summed into heavy atoms:
               1
     1  F   -0.026053
     2  B   -0.325785
     3  F   -0.019633
     4  F   -0.035487
     5  C    0.174867
     6  O   -0.092551
     7  N    0.324642
     8  H    0.000000
     9  H    0.000000
    10  H    0.000000
 Sum of Lowdin charges  =   0.00000
 Dipole moment from Lowdin charges (Debye):
    X=     3.0632    Y=    -2.0090    Z=    -1.5015  Tot=     3.9591
 Electronic spatial extent (au):  <R**2>=            737.3511
 Charge=              0.0000 electrons
 Dipole moment (field-independent basis, Debye):
    X=              2.4836    Y=             -3.5766    Z=             -1.7720  Tot=              4.7011
 Quadrupole moment (field-independent basis, Debye-Ang):
   XX=            -45.7572   YY=            -36.1624   ZZ=            -35.5944
   XY=             -4.4184   XZ=             -0.3432   YZ=              1.4106
 Traceless Quadrupole moment (field-independent basis, Debye-Ang):
   XX=             -6.5858   YY=              3.0089   ZZ=              3.5769
   XY=             -4.4184   XZ=             -0.3432   YZ=              1.4106
 Octapole moment (field-independent basis, Debye-Ang**2):
  XXX=            -22.8004  YYY=             -6.6345  ZZZ=             -5.4050  XYY=             -0.3505
  XXY=             -4.6232  XXZ=              5.0515  XZZ=              3.4346  YZZ=              0.4468
  YYZ=             -2.2822  XYZ=             -0.8555
 Hexadecapole moment (field-independent basis, Debye-Ang**3):
 XXXX=           -581.1620 YYYY=           -123.5014 ZZZZ=           -117.5331 XXXY=            -17.9488
 XXXZ=             -3.2688 YYYX=              2.4981 YYYZ=              3.0938 ZZZX=             -0.9283
 ZZZY=              0.7385 XXYY=           -107.8432 XXZZ=           -108.6588 YYZZ=            -40.8273
 XXYZ=             -0.6131 YYXZ=              1.4066 ZZXY=             -2.5579
 N-N= 3.162942580688D+02 E-N=-1.801718630260D+03  KE= 4.905131574712D+02
 There are a total of       79804 grid points.
 ElSum from          density=       55.9999538123
 ElSum from atomic densities=       55.9999281446
 Hirshfeld populations at iteration   1 (CA, CB, DipXYZ):
               1          2          3          4          5
     1  F    4.604603   4.604603  -0.010841  -0.000257  -0.007097
     2  B    2.360822   2.360822  -0.028087   0.009196  -0.002836
     3  F    4.602308   4.602308  -0.001318   0.018058   0.002674
     4  F    4.606370   4.606370  -0.004865  -0.001600   0.009776
     5  C    2.887276   2.887276  -0.050018  -0.023147  -0.002872
     6  O    4.108935   4.108935  -0.034747  -0.015950   0.010767
     7  N    3.540312   3.540312   0.040787  -0.035003  -0.052943
     8  H    0.460375   0.460375   0.004829  -0.083484   0.134874
     9  H    0.414276   0.414276  -0.041521  -0.215144  -0.032164
    10  H    0.414699   0.414699   0.020111   0.074902  -0.204657
       Tot  27.999977  27.999977  -0.105670  -0.272430  -0.144479

 Dip from Atomic Chgs              1.082771  -1.134867  -0.552851
         Total Dipole              0.977101  -1.407297  -0.697331

 Hirshfeld charges, spin densities, dipoles, and CM5 charges using IRadAn=      4:
              Q-H        S-H        Dx         Dy         Dz        Q-CM5   
     1  F   -0.209206   0.000000  -0.010841  -0.000257  -0.007097  -0.159078
     2  B    0.278356   0.000000  -0.028087   0.009196  -0.002836   0.316087
     3  F   -0.204617   0.000000  -0.001318   0.018058   0.002674  -0.253630
     4  F   -0.212741   0.000000  -0.004865  -0.001600   0.009776  -0.261635
     5  C    0.225448   0.000000  -0.050018  -0.023147  -0.002872   0.264245
     6  O   -0.217871   0.000000  -0.034747  -0.015950   0.010767  -0.270702
     7  N   -0.080624   0.000000   0.040787  -0.035003  -0.052943  -0.519999
     8  H    0.079251   0.000000   0.004829  -0.083484   0.134874   0.152242
     9  H    0.171448   0.000000  -0.041521  -0.215144  -0.032164   0.365693
    10  H    0.170601   0.000000   0.020111   0.074902  -0.204657   0.366824
       Tot   0.000046   0.000000  -0.105670  -0.272430  -0.144479   0.000046
 Hirshfeld charges with hydrogens summed into heavy atoms:
              Q-H       Q-CM5   
     1  F   -0.209206  -0.159078
     2  B    0.278356   0.316087
     3  F   -0.204617  -0.253630
     4  F   -0.212741  -0.261635
     5  C    0.304699   0.416486
     6  O   -0.217871  -0.270702
     7  N    0.261425   0.212518
 
 EQQ= 0.000000000000E+00 EQD= 0.000000000000E+00 EDD= 0.225391598196E-02
 EQQ+QD+DD= 0.225391598196E-02
 
 No NMR shielding tensors so no spin-rotation constants.
 Leave Link  601 at Wed Mar 18 14:12:08 2015, MaxMem=    33554432 cpu:         1.5
 (Enter /usr/local/research/Gaussian09/g09-revD.01/g09/l701.exe)
 Compute integral first derivatives.
 ... and contract with generalized density number  0.
 DipInt: DoE/N= T T RetVal/Mat= T F Init=T NMatP=  1 IDeriv=0 Min/MaxMlt=  1  1
 Entering OneElI...
 Multipole integrals L=1 to 1 MinM= 0 MaxM= 0.
 Requested accuracy = 0.1000D-12
 PrsmSu:  NPrtUS=   1 ThrOK=F IAlg=1 NPAlg=1 LenDen=           0.
 Prism:   IPart=     0 DynPar=F LinDyn=F Incr=          12.
 PRISM was handed    33452505 working-precision words and  1288 shell-pairs
 IPart=  0 NShTot=        1288 NBatch=          41 AvBLen=        31.4
 PrSmSu:  NxtVal=             13.
 Entering OneElI...
 Calculate overlap and kinetic energy integrals
    NBasis = 120  MinDer = 1  MaxDer = 1
 Requested accuracy = 0.1000D-12
 PrsmSu:  NPrtUS=   1 ThrOK=F IAlg=1 NPAlg=1 LenDen=           0.
 Prism:   IPart=     0 DynPar=F LinDyn=F Incr=          13.
 PRISM was handed    33432951 working-precision words and  1306 shell-pairs
 IPart=  0 NShTot=        1306 NBatch=          66 AvBLen=        19.8
 PrSmSu:  NxtVal=             14.
 Entering OneElI...
 Calculate potential energy integrals
    NBasis = 120  MinDer = 1  MaxDer = 1
 Requested accuracy = 0.1000D-12
 PrsmSu:  NPrtUS=   1 ThrOK=F IAlg=1 NPAlg=1 LenDen=           0.
 Prism:   IPart=     0 DynPar=F LinDyn=F Incr=         126.
 PRISM was handed    33454006 working-precision words and  1266 shell-pairs
 IPart=  0 NShTot=       12660 NBatch=        1266 AvBLen=        10.0
 PrSmSu:  NxtVal=            127.
   1 Symmetry operations used in ECPInt.
 ECPInt:  NShTT=    1326 NPrTT=    5050 LenC2=    1306 LenP2D=    4015.
 LDataN:  DoStor=F MaxTD1= 5 Len=  102
 LDataN:  DoStor=T MaxTD1= 5 Len=  102
 ECPSu:  NPrtUS=   1 ThrOK=F
 FXYZ after ECPSu
 I=    0 X=   0.000000000000D+00 Y=   0.000000000000D+00 Z=   0.000000000000D+00
 I=    1 X=   0.000000000000D+00 Y=   0.000000000000D+00 Z=   0.000000000000D+00
 I=    2 X=   0.000000000000D+00 Y=   0.000000000000D+00 Z=   0.000000000000D+00
 I=    3 X=   0.000000000000D+00 Y=   0.000000000000D+00 Z=   0.000000000000D+00
 I=    4 X=   0.000000000000D+00 Y=   0.000000000000D+00 Z=   0.000000000000D+00
 I=    5 X=   0.000000000000D+00 Y=   0.000000000000D+00 Z=   0.000000000000D+00
 I=    6 X=   0.000000000000D+00 Y=   0.000000000000D+00 Z=   0.000000000000D+00
 I=    7 X=   0.000000000000D+00 Y=   0.000000000000D+00 Z=   0.000000000000D+00
 I=    8 X=   0.000000000000D+00 Y=   0.000000000000D+00 Z=   0.000000000000D+00
 I=    9 X=   0.000000000000D+00 Y=   0.000000000000D+00 Z=   0.000000000000D+00
 I=   10 X=   0.000000000000D+00 Y=   0.000000000000D+00 Z=   0.000000000000D+00
 l701 out
 I=    0 X=   9.771182303691D-01 Y=  -1.407162327042D+00 Z=  -6.971715749918D-01
 I=    1 X=  -1.694249715227D+01 Y=  -4.324442413778D+00 Z=  -1.436682214235D+01
 I=    2 X=  -9.020815901566D-02 Y=  -6.865814607115D-01 Z=  -8.530190080744D-01
 I=    3 X=   7.557937060613D-01 Y=   2.214936427247D+01 Z=   2.166052746573D+00
 I=    4 X=  -5.387714487078D+00 Y=  -1.037629673972D+01 Z=   1.908099467091D+01
 I=    5 X=  -8.203005644072D-01 Y=  -8.193555804135D+00 Z=   5.080802297455D+00
 I=    6 X=   2.054039269020D+01 Y=   1.290950238903D+01 Z=  -3.979860955233D+00
 I=    7 X=   9.426793773231D-01 Y=  -3.725122788665D+00 Z=  -4.550596301035D+00
 I=    8 X=   7.907635406566D-01 Y=  -3.214600325903D+00 Z=   4.869537541723D+00
 I=    9 X=  -9.099946568341D-01 Y=  -6.688918548045D+00 Z=  -1.014212782834D+00
 I=   10 X=   1.121085705360D+00 Y=   2.150651419458D+00 Z=  -6.432876067130D+00
 Leave Link  701 at Wed Mar 18 14:12:09 2015, MaxMem=    33554432 cpu:         0.3
 (Enter /usr/local/research/Gaussian09/g09-revD.01/g09/l702.exe)
 L702 exits ... SP integral derivatives will be done elsewhere.
 Leave Link  702 at Wed Mar 18 14:12:09 2015, MaxMem=    33554432 cpu:         0.1
 (Enter /usr/local/research/Gaussian09/g09-revD.01/g09/l703.exe)
 Compute integral first derivatives, UseDBF=F ICtDFT=           0.
 Integral derivatives from FoFJK, PRISM(SPDF).
 ICntrl=      2127.
 Calling FoFJK, ICntrl=      2127 FMM=F ISym2X=0 I1Cent= 0 IOpClX= 0 NMat=1 NMatS=1 NMatT=0.
 FoFJK:  IHMeth= 1 ICntrl=    2127 DoSepK=F KAlg= 0 I1Cent=   0 FoldK=F
 IRaf=         0 NMat=   1 IRICut=       1 DoRegI=T DoRafI=F ISym2E= 0.
 FoFCou: FMM=F IPFlag=           0 FMFlag=      100000 FMFlg1=         800
         NFxFlg=           0 DoJE=F BraDBF=F KetDBF=F FulRan=T
         wScrn=  0.000000 ICntrl=    2127 IOpCl=  0 I1Cent=           0 NGrid=           0
         NMat0=    1 NMatS0=      1 NMatT0=    0 NMatD0=    1 NMtDS0=    0 NMtDT0=    0
 Symmetry not used in FoFCou.
 FoFCou:  KetSym=F NOpSet=  1 NOpAb=1 NOp=  1.
 FoFCou:  CnvScl= 1.00D+00 Thresh= 1.00D-10 IAcrcy=      10.
 PrismS was handed    33451691 working-precision words and  1281 shell-pairs
 FoFCou: LinMIO=F DoNuc=F BraDBF=F KetDBF=F HaveP=T PDBF=F HaveZ=T HaveW=F
         NIJTC =       6 NIJTAt=       0 NIJTCD=       0 NIJTT =       6
         IJTBeg=       1 IJTEnd=       6 KLTBeg=       1 KLTEnd=       6
         IPTBeg=       1 IPTEnd=       6 IPTBCv=       1 IPTECv=       6
         IZTBeg=       1 IZTEnd=       6 IZTBCv=       1 IZTECv=       6
         IWTBeg=       7 IWTEnd=       6 IWTBCv=       7 IWTECv=       6
         INTBeg=       1 INTEnd=       0 IFTBCv=       1 IFTECv=       6
 NCel replicated for PrismC:     1
 CoulSu:  IncDef=  1024 NBBP=         821121 NTPThr=   100 NPartT=    1 Incr=        1024 LDynOK=F.
 CoulSu:  NPrtUS=   1 ThrOK=F IAlg=1 NPAlg=1 LenDen=           0 LWGrdD=           0 DoCopy=F.
 Enter PrismC: JobTyp=21 DoJE=F Cont=F.
 PrismC:  IPart=     0 DynPar=F LinDyn=F Incr=        1024 UseFst=F UseS4=T IGathr=2.
 PrismC was handed    33450367 working-precision words and  1281 shell-pairs
 IPart=  0 NShTot=      680764 NShNF=      680764 NShFF=           0 NBatch=       18547 AvBLen=        36.7
 CoulSu:  NxtVal=           1025.
 ReadGW:  IGet=0 IStart=           1 Next=           1 LGW=           0.
 Remaining memory in FofDFT       31.99 Mw
 CkSvGd:  ISavGI=        -1 IRadAn=       4 IRASav=       0 ISavGd=        -1.
 CalDSu:  NPrtUS=   1 ThrOK=F IAlg=1 NPAlg=1 DoDPD=F LenP=        7260 LenD1P=             0.
 IPart=  0 IRanGd=          0 ScrnBf=T ScrnGd=T RCrit=4.00D+00 DoMicB=T.
 IPart=  0        72497 of        80242 points in     169 batches and      522 microbatches, Max-NSigAt=      10 Max-NSgAt2=      10
 Forces at end of L703
 I=    0 X=   9.771182303691D-01 Y=  -1.407162327042D+00 Z=  -6.971715749918D-01
 I=    1 X=  -2.679806840899D-03 Y=   5.114259730474D-04 Z=   3.199179054825D-05
 I=    2 X=   2.649366998563D-03 Y=  -6.017578425007D-04 Z=  -1.093515506211D-03
 I=    3 X=  -1.252750237437D-03 Y=   1.759395681958D-03 Z=   7.807227124244D-04
 I=    4 X=  -1.832768193716D-03 Y=   4.339465946437D-04 Z=   1.836809649621D-03
 I=    5 X=   2.614094878225D-03 Y=  -1.370863694477D-03 Z=   6.297879969070D-03
 I=    6 X=  -2.994094351159D-03 Y=  -3.049238619091D-03 Z=   1.489024015001D-03
 I=    7 X=  -2.395303627669D-04 Y=  -2.086608051373D-03 Z=  -3.607907026820D-03
 I=    8 X=   9.115734224926D-04 Y=   4.127899671771D-03 Z=  -7.661387616532D-03
 I=    9 X=   3.013309731878D-03 Y=   3.645430067872D-03 Z=  -1.067593007860D-03
 I=   10 X=  -1.893950448464D-04 Y=  -3.369629782465D-03 Z=   2.993975020988D-03
 Leave Link  703 at Wed Mar 18 14:12:20 2015, MaxMem=    33554432 cpu:        11.3
 (Enter /usr/local/research/Gaussian09/g09-revD.01/g09/l716.exe)
 FrcOut:
 IF    =   418 IFX   =   457 IFXYZ =   487
 IFFX  =   517 IFFFX =   517 IFLen =    39
 IFFLen=     0 IFFFLn=     0 IEDerv=   517
 LEDerv=  1493 IFroze=  2354 ICStrt= 28237
 Dipole        = 9.77118230D-01-1.40716233D+00-6.97171575D-01
 Quadrupole    =-4.89641106D+00 2.23703935D+00 2.65937171D+00
                -3.28496430D+00-2.55178224D-01 1.04871783D+00
 Forces in standard orientation:
 -------------------------------------------------------------------
 Center     Atomic                   Forces (Hartrees/Bohr)
 Number     Number              X              Y              Z
 -------------------------------------------------------------------
      1        9          -0.002679807    0.000511426    0.000031992
      2        5           0.002649367   -0.000601758   -0.001093516
      3        9          -0.001252750    0.001759396    0.000780723
      4        9          -0.001832768    0.000433947    0.001836810
      5        6           0.002614095   -0.001370864    0.006297880
      6        8          -0.002994094   -0.003049239    0.001489024
      7        7          -0.000239530   -0.002086608   -0.003607907
      8        1           0.000911573    0.004127900   -0.007661388
      9        1           0.003013310    0.003645430   -0.001067593
     10        1          -0.000189395   -0.003369630    0.002993975
 -------------------------------------------------------------------
 ***** Axes restored to original set *****
 Rotating derivatives, DoTrsp=F IDiff=-1 LEDeriv=   1492 LFDPrp=       0 LDFDPr=       0.
 -------------------------------------------------------------------
 Center     Atomic                   Forces (Hartrees/Bohr)
 Number     Number              X              Y              Z
 -------------------------------------------------------------------
      1        9           0.001618534   -0.000272499   -0.002179458
      2        5          -0.000827168   -0.000064771    0.002808671
      3        9          -0.000173488   -0.001214117   -0.001941702
      4        9          -0.000193613    0.000458127   -0.002583380
      5        6          -0.005814831    0.003579812   -0.001322398
      6        8           0.001714241    0.003586339   -0.002163146
      7        7           0.003236786    0.000491371    0.002590380
      8        1           0.003735609   -0.006885127    0.003899697
      9        1          -0.002177057   -0.003965653    0.001744411
     10        1          -0.001119012    0.004286518   -0.000853074
 -------------------------------------------------------------------
 Cartesian Forces:  Max     0.006885127 RMS     0.002798399
 Final forces over variables, Energy=-4.93586454D+02:
  0.00000000D+00 0.00000000D+00 0.00000000D+00 0.00000000D+00
  0.00000000D+00 0.00000000D+00 0.00000000D+00 0.00000000D+00
  0.00000000D+00 0.00000000D+00 0.00000000D+00 0.00000000D+00
  0.00000000D+00 0.00000000D+00 0.00000000D+00 0.00000000D+00
  0.00000000D+00 0.00000000D+00 0.00000000D+00 0.00000000D+00
  0.00000000D+00 0.00000000D+00 0.00000000D+00 0.00000000D+00
  0.00000000D+00 0.00000000D+00 0.00000000D+00 0.00000000D+00
  0.00000000D+00 0.00000000D+00 0.00000000D+00 0.00000000D+00
  0.00000000D+00 0.00000000D+00 0.00000000D+00 0.00000000D+00
  0.00000000D+00 0.00000000D+00 0.00000000D+00
 Leave Link  716 at Wed Mar 18 14:12:20 2015, MaxMem=    33554432 cpu:         0.0
 (Enter /usr/local/research/Gaussian09/g09-revD.01/g09/l103.exe)

 GradGradGradGradGradGradGradGradGradGradGradGradGradGradGradGradGradGrad
 Berny optimization.
 FormGI is forming the generalized inverse of G from B-inverse, IUseBI=4.
 Internal  Forces:  Max     0.008709596 RMS     0.002385889
 Search for a local minimum.
 Step number   1 out of a maximum of   49
 All quantities printed in internal units (Hartrees-Bohrs-Radians)
 RMS Force = .23859D-02 SwitMx=.10000D-02 MixMth= 1
 Mixed Optimization -- RFO/linear search
 Second derivative matrix not updated -- first step.
 ITU=  0
     Eigenvalues ---    0.00230   0.01239   0.01242   0.04482   0.05750
     Eigenvalues ---    0.09055   0.10777   0.10954   0.12669   0.13763
     Eigenvalues ---    0.16000   0.22001   0.22024   0.25000   0.25000
     Eigenvalues ---    0.25000   0.33937   0.40389   0.44537   0.44637
     Eigenvalues ---    0.53297   0.54155   0.54939   1.11977
 RFO step:  Lambda=-8.85659602D-04 EMin= 2.30000000D-03
 Linear search not attempted -- first point.
 Iteration  1 RMS(Cart)=  0.02733897 RMS(Int)=  0.00041983
 Iteration  2 RMS(Cart)=  0.00038354 RMS(Int)=  0.00010933
 Iteration  3 RMS(Cart)=  0.00000017 RMS(Int)=  0.00010933
 ITry= 1 IFail=0 DXMaxC= 8.48D-02 DCOld= 1.00D+10 DXMaxT= 3.00D-01 DXLimC= 3.00D+00 Rises=F
 Variable       Old X    -DE/DX   Delta X   Delta X   Delta X     New X
                                 (Linear)    (Quad)   (Total)
    R1        2.55891  -0.00169   0.00000  -0.00312  -0.00312   2.55579
    R2        2.55186  -0.00149   0.00000  -0.00271  -0.00271   2.54916
    R3        2.56678  -0.00150   0.00000  -0.00281  -0.00281   2.56396
    R4        3.41192  -0.00404   0.00000  -0.02915  -0.02915   3.38277
    R5        2.24193   0.00450   0.00000   0.00401   0.00401   2.24594
    R6        2.71028  -0.00044   0.00000  -0.00108  -0.00108   2.70920
    R7        2.07436   0.00871   0.00000   0.02560   0.02560   2.09996
    R8        1.92400   0.00406   0.00000   0.00907   0.00907   1.93306
    R9        1.92517   0.00408   0.00000   0.00915   0.00915   1.93432
    A1        2.02516   0.00236   0.00000   0.00946   0.00928   2.03443
    A2        2.01409   0.00245   0.00000   0.00929   0.00906   2.02315
    A3        1.77800  -0.00383   0.00000  -0.01542  -0.01555   1.76244
    A4        2.01583   0.00242   0.00000   0.01007   0.00990   2.02572
    A5        1.79815  -0.00281   0.00000  -0.01105  -0.01117   1.78699
    A6        1.77611  -0.00386   0.00000  -0.01540  -0.01553   1.76058
    A7        2.14093  -0.00067   0.00000  -0.00327  -0.00357   2.13736
    A8        2.18469   0.00050   0.00000   0.00213   0.00183   2.18651
    A9        1.95718   0.00015   0.00000  -0.00002  -0.00032   1.95686
   A10        1.93999   0.00032   0.00000  -0.00203  -0.00202   1.93796
   A11        1.82883  -0.00211   0.00000  -0.01975  -0.01974   1.80910
   A12        1.89884  -0.00035   0.00000  -0.00517  -0.00517   1.89366
   A13        1.95131   0.00117   0.00000   0.01030   0.01021   1.96153
   A14        1.93134  -0.00023   0.00000   0.00016   0.00012   1.93145
   A15        1.91032   0.00110   0.00000   0.01553   0.01542   1.92575
    D1        3.13093  -0.00022   0.00000  -0.02067  -0.02071   3.11023
    D2       -1.04163   0.00007   0.00000  -0.02144  -0.02144  -1.06307
    D3        1.00005   0.00009   0.00000  -0.01611  -0.01612   0.98393
    D4        1.02616  -0.00023   0.00000  -0.02075  -0.02077   1.00539
    D5        3.13679   0.00006   0.00000  -0.02152  -0.02151   3.11528
    D6       -1.10473   0.00008   0.00000  -0.01619  -0.01618  -1.12091
    D7       -1.06767  -0.00033   0.00000  -0.02166  -0.02165  -1.08933
    D8        1.04295  -0.00004   0.00000  -0.02242  -0.02239   1.02056
    D9        3.08463  -0.00002   0.00000  -0.01709  -0.01707   3.06756
   D10       -1.88405  -0.00042   0.00000  -0.00266  -0.00269  -1.88674
   D11        2.36216   0.00127   0.00000   0.01680   0.01684   2.37900
   D12        0.22785  -0.00080   0.00000  -0.01046  -0.01050   0.21735
   D13        1.22916  -0.00100   0.00000  -0.04589  -0.04591   1.18325
   D14       -0.80782   0.00069   0.00000  -0.02644  -0.02638  -0.83419
   D15       -2.94212  -0.00137   0.00000  -0.05369  -0.05372  -2.99584
         Item               Value     Threshold  Converged?
 Maximum Force            0.008710     0.000450     NO 
 RMS     Force            0.002386     0.000300     NO 
 Maximum Displacement     0.084830     0.001800     NO 
 RMS     Displacement     0.027487     0.001200     NO 
 Predicted change in Energy=-4.488030D-04
 Lowest energy point so far.  Saving SCF results.
 GradGradGradGradGradGradGradGradGradGradGradGradGradGradGradGradGradGrad

 Leave Link  103 at Wed Mar 18 14:12:20 2015, MaxMem=    33554432 cpu:         0.0
 (Enter /usr/local/research/Gaussian09/g09-revD.01/g09/l202.exe)
                          Input orientation:                          
 ---------------------------------------------------------------------
 Center     Atomic      Atomic             Coordinates (Angstroms)
 Number     Number       Type             X           Y           Z
 ---------------------------------------------------------------------
      1          9           0       -1.949413    0.219823    1.168869
      2          5           0       -0.598014    0.174887    1.139443
      3          9           0        0.049374    1.335201    1.372342
      4          9           0       -0.030178   -0.940263    1.663735
      5          6           0        1.101080   -0.126180   -0.891490
      6          8           0        1.662481    0.753261   -1.460655
      7          7           0       -0.303456   -0.085341   -0.606960
      8          1           0        1.590104   -1.024447   -0.456925
      9          1           0       -0.766086   -0.977109   -0.799614
     10          1           0       -0.755893    0.670166   -1.128744
 ---------------------------------------------------------------------
                    Distance matrix (angstroms):
                    1          2          3          4          5
     1  F    0.000000
     2  B    1.352466   0.000000
     3  F    2.297960   1.348956   0.000000
     4  F    2.296553   1.356790   2.295424   0.000000
     5  C    3.697337   2.665005   2.892517   2.910610   0.000000
     6  O    4.499414   3.493546   3.311591   3.936360   1.188502
     7  N    2.440464   1.790085   2.461719   2.441644   1.433648
     8  H    4.088960   2.962204   3.359762   2.670130   1.111250
     9  H    2.589949   2.261700   3.275537   2.571188   2.053979
    10  H    2.627989   2.326994   2.710379   3.304252   2.034405
                    6          7          8          9         10
     6  O    0.000000
     7  N    2.301512   0.000000
     8  H    2.042782   2.118962   0.000000
     9  H    3.054356   1.022934   2.381451   0.000000
    10  H    2.442458   1.023596   2.970986   1.679865   0.000000
 Stoichiometry    CH3BF3NO
 Framework group  C1[X(CH3BF3NO)]
 Deg. of freedom    24
 Full point group                 C1      NOp   1
 RotChk:  IX=0 Diff= 2.12D-01
 Largest Abelian subgroup         C1      NOp   1
 Largest concise Abelian subgroup C1      NOp   1
                         Standard orientation:                         
 ---------------------------------------------------------------------
 Center     Atomic      Atomic             Coordinates (Angstroms)
 Number     Number       Type             X           Y           Z
 ---------------------------------------------------------------------
      1          9           0       -1.866854   -0.044622   -0.897151
      2          5           0       -0.950821    0.099077    0.087429
      3          9           0       -0.605980    1.362466    0.410870
      4          9           0       -1.048252   -0.775304    1.120311
      5          6           0        1.665255   -0.407123    0.133919
      6          8           0        2.528174    0.391825   -0.038098
      7          7           0        0.523893   -0.504652   -0.728129
      8          1           0        1.598672   -1.104145    0.996822
      9          1           0        0.292217   -1.473726   -0.959678
     10          1           0        0.668806    0.040332   -1.582379
 ---------------------------------------------------------------------
 Rotational constants (GHZ):      4.4864998      1.6818612      1.6607399
 Leave Link  202 at Wed Mar 18 14:12:20 2015, MaxMem=    33554432 cpu:         0.0
 (Enter /usr/local/research/Gaussian09/g09-revD.01/g09/l301.exe)
 Standard basis: def2SVP (5D, 7F)
 Ernie: Thresh=  0.10000D-02 Tol=  0.10000D-05 Strict=F.
 There are   120 symmetry adapted cartesian basis functions of A   symmetry.
 There are   113 symmetry adapted basis functions of A   symmetry.
   113 basis functions,   196 primitive gaussians,   120 cartesian basis functions
    28 alpha electrons       28 beta electrons
       nuclear repulsion energy       317.4302319023 Hartrees.
 IExCor= 1009 DFT=T Ex+Corr=PBE1PBE ExCW=0 ScaHFX=  0.250000
 ScaDFX=  0.750000  0.750000  1.000000  1.000000 ScalE2=  1.000000  1.000000
 IRadAn=      0 IRanWt=     -1 IRanGd=            0 ICorTp=0 IEmpDi=  4
 NAtoms=   10 NActive=   10 NUniq=   10 SFac= 1.00D+00 NAtFMM=   60 NAOKFM=F Big=F
 Integral buffers will be    131072 words long.
 Raffenetti 2 integral format.
 Two-electron integral symmetry is turned on.
 Leave Link  301 at Wed Mar 18 14:12:20 2015, MaxMem=    33554432 cpu:         0.1
 (Enter /usr/local/research/Gaussian09/g09-revD.01/g09/l302.exe)
 NPDir=0 NMtPBC=     1 NCelOv=     1 NCel=       1 NClECP=     1 NCelD=      1
         NCelK=      1 NCelE2=     1 NClLst=     1 CellRange=     0.0.
 One-electron integrals computed using PRISM.
   1 Symmetry operations used in ECPInt.
 ECPInt:  NShTT=    1326 NPrTT=    5050 LenC2=    1306 LenP2D=    4024.
 LDataN:  DoStor=T MaxTD1= 4 Len=   56
 NBasis=   113 RedAO= T EigKep=  8.58D-03  NBF=   113
 NBsUse=   113 1.00D-06 EigRej= -1.00D+00 NBFU=   113
 Precomputing XC quadrature grid using
 IXCGrd= 4 IRadAn=           0 IRanWt=          -1 IRanGd=           0 AccXCQ= 0.00D+00.
 Generated NRdTot=       0 NPtTot=           0 NUsed=           0 NTot=          32
 NSgBfM=   120   120   120   120   120 MxSgAt=    10 MxSgA2=    10.
 Leave Link  302 at Wed Mar 18 14:12:21 2015, MaxMem=    33554432 cpu:         0.5
 (Enter /usr/local/research/Gaussian09/g09-revD.01/g09/l303.exe)
 DipDrv:  MaxL=1.
 Leave Link  303 at Wed Mar 18 14:12:21 2015, MaxMem=    33554432 cpu:         0.0
 (Enter /usr/local/research/Gaussian09/g09-revD.01/g09/l401.exe)
 Initial guess from the checkpoint file:  "g09-f3bnh2cho.chk"
 B after Tr=     0.000000    0.000000    0.000000
         Rot=    0.996780   -0.080069   -0.001207    0.004099 Ang=  -9.20 deg.
 Guess basis will be translated and rotated to current coordinates.
 JPrj=2 DoOrth=T DoCkMO=T.
 Generating alternative initial guess.
 ExpMin= 8.36D-02 ExpMax= 2.89D+03 ExpMxC= 4.35D+02 IAcc=2 IRadAn=         4 AccDes= 0.00D+00
 Harris functional with IExCor= 1009 and IRadAn=       4 diagonalized for initial guess.
 HarFok:  IExCor= 1009 AccDes= 0.00D+00 IRadAn=         4 IDoV= 1 UseB2=F ITyADJ=14
 ICtDFT=  3500011 ScaDFX=  1.000000  1.000000  1.000000  1.000000
 FoFCou: FMM=F IPFlag=           0 FMFlag=      100000 FMFlg1=           0
         NFxFlg=           0 DoJE=T BraDBF=F KetDBF=T FulRan=T
         wScrn=  0.000000 ICntrl=     500 IOpCl=  0 I1Cent=   200000004 NGrid=           0
         NMat0=    1 NMatS0=      1 NMatT0=    0 NMatD0=    1 NMtDS0=    0 NMtDT0=    0
 Petite list used in FoFCou.
 Harris En= -493.616062243234    
 Leave Link  401 at Wed Mar 18 14:12:23 2015, MaxMem=    33554432 cpu:         2.3
 (Enter /usr/local/research/Gaussian09/g09-revD.01/g09/l502.exe)
 Closed shell SCF:
 Using DIIS extrapolation, IDIIS=  1040.
 Integral symmetry usage will be decided dynamically.
 Keep R1 ints in memory in canonical form, NReq=21753751.
 IVT=       63374 IEndB=       63374 NGot=    33554432 MDV=    12744598
 LenX=    12744598 LenY=    12729757
 Requested convergence on RMS density matrix=1.00D-08 within 128 cycles.
 Requested convergence on MAX density matrix=1.00D-06.
 Requested convergence on             energy=1.00D-06.
 No special actions if energy rises.
 FoFCou: FMM=F IPFlag=           0 FMFlag=           0 FMFlg1=           0
         NFxFlg=           0 DoJE=F BraDBF=F KetDBF=F FulRan=T
         wScrn=  0.000000 ICntrl=     600 IOpCl=  0 I1Cent=           0 NGrid=           0
         NMat0=    1 NMatS0=   6441 NMatT0=    0 NMatD0=    1 NMtDS0=    0 NMtDT0=    0
 Symmetry not used in FoFCou.
 Integral accuracy reduced to 1.0D-05 until final iterations.

 Cycle   1  Pass 0  IDiag  1:
 E= -493.585888675531    
 DIIS: error= 1.31D-03 at cycle   1 NSaved=   1.
 NSaved= 1 IEnMin= 1 EnMin= -493.585888675531     IErMin= 1 ErrMin= 1.31D-03
 ErrMax= 1.31D-03  0.00D+00 EMaxC= 1.00D-01 BMatC= 6.34D-04 BMatP= 6.34D-04
 IDIUse=3 WtCom= 9.87D-01 WtEn= 1.31D-02
 Coeff-Com:  0.100D+01
 Coeff-En:   0.100D+01
 Coeff:      0.100D+01
 Gap=     0.611 Goal=   None    Shift=    0.000
 GapD=    0.611 DampG=2.000 DampE=1.000 DampFc=2.0000 IDamp=-1.
 RMSDP=3.48D-04 MaxDP=6.51D-03              OVMax= 9.63D-03

 Cycle   2  Pass 0  IDiag  1:
 E= -493.586751450087     Delta-E=       -0.000862774556 Rises=F Damp=F
 DIIS: error= 2.72D-04 at cycle   2 NSaved=   2.
 NSaved= 2 IEnMin= 2 EnMin= -493.586751450087     IErMin= 2 ErrMin= 2.72D-04
 ErrMax= 2.72D-04  0.00D+00 EMaxC= 1.00D-01 BMatC= 1.75D-05 BMatP= 6.34D-04
 IDIUse=3 WtCom= 9.97D-01 WtEn= 2.72D-03
 Coeff-Com: -0.269D-01 0.103D+01
 Coeff-En:   0.000D+00 0.100D+01
 Coeff:     -0.268D-01 0.103D+01
 Gap=     0.280 Goal=   None    Shift=    0.000
 RMSDP=7.30D-05 MaxDP=1.81D-03 DE=-8.63D-04 OVMax= 3.07D-03

 Cycle   3  Pass 0  IDiag  1:
 E= -493.586752188175     Delta-E=       -0.000000738088 Rises=F Damp=F
 DIIS: error= 5.16D-04 at cycle   3 NSaved=   3.
 NSaved= 3 IEnMin= 3 EnMin= -493.586752188175     IErMin= 2 ErrMin= 2.72D-04
 ErrMax= 5.16D-04  0.00D+00 EMaxC= 1.00D-01 BMatC= 3.16D-05 BMatP= 1.75D-05
 IDIUse=3 WtCom= 3.06D-01 WtEn= 6.94D-01
 Coeff-Com: -0.356D-01 0.618D+00 0.418D+00
 Coeff-En:   0.000D+00 0.490D+00 0.510D+00
 Coeff:     -0.109D-01 0.529D+00 0.482D+00
 Gap=     0.281 Goal=   None    Shift=    0.000
 RMSDP=5.10D-05 MaxDP=1.36D-03 DE=-7.38D-07 OVMax= 2.51D-03

 Cycle   4  Pass 0  IDiag  1:
 E= -493.586772307205     Delta-E=       -0.000020119030 Rises=F Damp=F
 DIIS: error= 2.83D-04 at cycle   4 NSaved=   4.
 NSaved= 4 IEnMin= 4 EnMin= -493.586772307205     IErMin= 2 ErrMin= 2.72D-04
 ErrMax= 2.83D-04  0.00D+00 EMaxC= 1.00D-01 BMatC= 7.14D-06 BMatP= 1.75D-05
 IDIUse=3 WtCom= 9.97D-01 WtEn= 2.83D-03
 Coeff-Com: -0.151D-01 0.150D+00 0.325D+00 0.541D+00
 Coeff-En:   0.000D+00 0.000D+00 0.208D+00 0.792D+00
 Coeff:     -0.151D-01 0.150D+00 0.324D+00 0.541D+00
 Gap=     0.281 Goal=   None    Shift=    0.000
 RMSDP=1.90D-05 MaxDP=5.84D-04 DE=-2.01D-05 OVMax= 7.79D-04

 Cycle   5  Pass 0  IDiag  1:
 E= -493.586777893439     Delta-E=       -0.000005586235 Rises=F Damp=F
 DIIS: error= 2.64D-05 at cycle   5 NSaved=   5.
 NSaved= 5 IEnMin= 5 EnMin= -493.586777893439     IErMin= 5 ErrMin= 2.64D-05
 ErrMax= 2.64D-05  0.00D+00 EMaxC= 1.00D-01 BMatC= 9.73D-08 BMatP= 7.14D-06
 IDIUse=1 WtCom= 1.00D+00 WtEn= 0.00D+00
 Coeff-Com: -0.143D-02-0.112D-01 0.664D-01 0.180D+00 0.767D+00
 Coeff:     -0.143D-02-0.112D-01 0.664D-01 0.180D+00 0.767D+00
 Gap=     0.281 Goal=   None    Shift=    0.000
 RMSDP=4.03D-06 MaxDP=1.24D-04 DE=-5.59D-06 OVMax= 2.64D-04

 Initial convergence to 1.0D-05 achieved.  Increase integral accuracy.
 Cycle   6  Pass 1  IDiag  1:
 E= -493.586767151901     Delta-E=        0.000010741538 Rises=F Damp=F
 DIIS: error= 1.64D-05 at cycle   1 NSaved=   1.
 NSaved= 1 IEnMin= 1 EnMin= -493.586767151901     IErMin= 1 ErrMin= 1.64D-05
 ErrMax= 1.64D-05  0.00D+00 EMaxC= 1.00D-01 BMatC= 4.06D-08 BMatP= 4.06D-08
 IDIUse=1 WtCom= 1.00D+00 WtEn= 0.00D+00
 Coeff-Com:  0.100D+01
 Coeff:      0.100D+01
 Gap=     0.281 Goal=   None    Shift=    0.000
 RMSDP=4.03D-06 MaxDP=1.24D-04 DE= 1.07D-05 OVMax= 9.76D-05

 Cycle   7  Pass 1  IDiag  1:
 E= -493.586767197833     Delta-E=       -0.000000045932 Rises=F Damp=F
 DIIS: error= 8.96D-06 at cycle   2 NSaved=   2.
 NSaved= 2 IEnMin= 2 EnMin= -493.586767197833     IErMin= 2 ErrMin= 8.96D-06
 ErrMax= 8.96D-06  0.00D+00 EMaxC= 1.00D-01 BMatC= 2.03D-08 BMatP= 4.06D-08
 IDIUse=1 WtCom= 1.00D+00 WtEn= 0.00D+00
 Coeff-Com:  0.377D+00 0.623D+00
 Coeff:      0.377D+00 0.623D+00
 Gap=     0.281 Goal=   None    Shift=    0.000
 RMSDP=1.29D-06 MaxDP=2.86D-05 DE=-4.59D-08 OVMax= 3.91D-05

 Cycle   8  Pass 1  IDiag  1:
 E= -493.586767207883     Delta-E=       -0.000000010050 Rises=F Damp=F
 DIIS: error= 5.50D-06 at cycle   3 NSaved=   3.
 NSaved= 3 IEnMin= 3 EnMin= -493.586767207883     IErMin= 3 ErrMin= 5.50D-06
 ErrMax= 5.50D-06  0.00D+00 EMaxC= 1.00D-01 BMatC= 6.21D-09 BMatP= 2.03D-08
 IDIUse=1 WtCom= 1.00D+00 WtEn= 0.00D+00
 Coeff-Com: -0.131D-01 0.351D+00 0.662D+00
 Coeff:     -0.131D-01 0.351D+00 0.662D+00
 Gap=     0.281 Goal=   None    Shift=    0.000
 RMSDP=5.92D-07 MaxDP=1.62D-05 DE=-1.00D-08 OVMax= 2.41D-05

 Cycle   9  Pass 1  IDiag  1:
 E= -493.586767211805     Delta-E=       -0.000000003922 Rises=F Damp=F
 DIIS: error= 2.34D-06 at cycle   4 NSaved=   4.
 NSaved= 4 IEnMin= 4 EnMin= -493.586767211805     IErMin= 4 ErrMin= 2.34D-06
 ErrMax= 2.34D-06  0.00D+00 EMaxC= 1.00D-01 BMatC= 7.58D-10 BMatP= 6.21D-09
 IDIUse=1 WtCom= 1.00D+00 WtEn= 0.00D+00
 Coeff-Com: -0.236D-01 0.196D+00 0.417D+00 0.411D+00
 Coeff:     -0.236D-01 0.196D+00 0.417D+00 0.411D+00
 Gap=     0.281 Goal=   None    Shift=    0.000
 RMSDP=1.96D-07 MaxDP=5.39D-06 DE=-3.92D-09 OVMax= 8.86D-06

 Cycle  10  Pass 1  IDiag  1:
 E= -493.586767212395     Delta-E=       -0.000000000590 Rises=F Damp=F
 DIIS: error= 5.13D-07 at cycle   5 NSaved=   5.
 NSaved= 5 IEnMin= 5 EnMin= -493.586767212395     IErMin= 5 ErrMin= 5.13D-07
 ErrMax= 5.13D-07  0.00D+00 EMaxC= 1.00D-01 BMatC= 2.56D-11 BMatP= 7.58D-10
 IDIUse=1 WtCom= 1.00D+00 WtEn= 0.00D+00
 Coeff-Com: -0.792D-02 0.331D-01 0.797D-01 0.172D+00 0.723D+00
 Coeff:     -0.792D-02 0.331D-01 0.797D-01 0.172D+00 0.723D+00
 Gap=     0.281 Goal=   None    Shift=    0.000
 RMSDP=5.83D-08 MaxDP=1.43D-06 DE=-5.90D-10 OVMax= 3.20D-06

 Cycle  11  Pass 1  IDiag  1:
 E= -493.586767212424     Delta-E=       -0.000000000028 Rises=F Damp=F
 DIIS: error= 1.32D-07 at cycle   6 NSaved=   6.
 NSaved= 6 IEnMin= 6 EnMin= -493.586767212424     IErMin= 6 ErrMin= 1.32D-07
 ErrMax= 1.32D-07  0.00D+00 EMaxC= 1.00D-01 BMatC= 2.48D-12 BMatP= 2.56D-11
 IDIUse=1 WtCom= 1.00D+00 WtEn= 0.00D+00
 Coeff-Com:  0.859D-03-0.176D-01-0.347D-01-0.262D-02 0.244D+00 0.810D+00
 Coeff:      0.859D-03-0.176D-01-0.347D-01-0.262D-02 0.244D+00 0.810D+00
 Gap=     0.281 Goal=   None    Shift=    0.000
 RMSDP=2.61D-08 MaxDP=7.97D-07 DE=-2.84D-11 OVMax= 1.95D-06

 Cycle  12  Pass 1  IDiag  1:
 E= -493.586767212427     Delta-E=       -0.000000000003 Rises=F Damp=F
 DIIS: error= 2.48D-08 at cycle   7 NSaved=   7.
 NSaved= 7 IEnMin= 7 EnMin= -493.586767212427     IErMin= 7 ErrMin= 2.48D-08
 ErrMax= 2.48D-08  0.00D+00 EMaxC= 1.00D-01 BMatC= 1.78D-13 BMatP= 2.48D-12
 IDIUse=1 WtCom= 1.00D+00 WtEn= 0.00D+00
 Coeff-Com:  0.972D-03-0.850D-02-0.174D-01-0.170D-01 0.807D-02 0.244D+00
 Coeff-Com:  0.790D+00
 Coeff:      0.972D-03-0.850D-02-0.174D-01-0.170D-01 0.807D-02 0.244D+00
 Coeff:      0.790D+00
 Gap=     0.281 Goal=   None    Shift=    0.000
 RMSDP=6.95D-09 MaxDP=1.17D-07 DE=-3.18D-12 OVMax= 4.97D-07

 SCF Done:  E(RPBE1PBE) =  -493.586767212     A.U. after   12 cycles
            NFock= 12  Conv=0.69D-08     -V/T= 2.0063
 KE= 4.904997323594D+02 PE=-1.803975828216D+03 EE= 5.024590967415D+02
 Leave Link  502 at Wed Mar 18 14:12:49 2015, MaxMem=    33554432 cpu:        25.6
 (Enter /usr/local/research/Gaussian09/g09-revD.01/g09/l701.exe)
 Compute integral first derivatives.
 ... and contract with generalized density number  0.
 DipInt: DoE/N= T T RetVal/Mat= T F Init=T NMatP=  1 IDeriv=0 Min/MaxMlt=  1  1
 Entering OneElI...
 Multipole integrals L=1 to 1 MinM= 0 MaxM= 0.
 Requested accuracy = 0.1000D-12
 PrsmSu:  NPrtUS=   1 ThrOK=F IAlg=1 NPAlg=1 LenDen=           0.
 Prism:   IPart=     0 DynPar=F LinDyn=F Incr=          12.
 PRISM was handed    33452393 working-precision words and  1288 shell-pairs
 IPart=  0 NShTot=        1288 NBatch=          41 AvBLen=        31.4
 PrSmSu:  NxtVal=             13.
 Entering OneElI...
 Calculate overlap and kinetic energy integrals
    NBasis = 120  MinDer = 1  MaxDer = 1
 Requested accuracy = 0.1000D-12
 PrsmSu:  NPrtUS=   1 ThrOK=F IAlg=1 NPAlg=1 LenDen=           0.
 Prism:   IPart=     0 DynPar=F LinDyn=F Incr=          13.
 PRISM was handed    33432869 working-precision words and  1307 shell-pairs
 IPart=  0 NShTot=        1307 NBatch=          66 AvBLen=        19.8
 PrSmSu:  NxtVal=             14.
 Entering OneElI...
 Calculate potential energy integrals
    NBasis = 120  MinDer = 1  MaxDer = 1
 Requested accuracy = 0.1000D-12
 PrsmSu:  NPrtUS=   1 ThrOK=F IAlg=1 NPAlg=1 LenDen=           0.
 Prism:   IPart=     0 DynPar=F LinDyn=F Incr=         126.
 PRISM was handed    33453896 working-precision words and  1267 shell-pairs
 IPart=  0 NShTot=       12670 NBatch=        1267 AvBLen=        10.0
 PrSmSu:  NxtVal=            127.
   1 Symmetry operations used in ECPInt.
 ECPInt:  NShTT=    1326 NPrTT=    5050 LenC2=    1306 LenP2D=    4024.
 LDataN:  DoStor=F MaxTD1= 5 Len=  102
 LDataN:  DoStor=T MaxTD1= 5 Len=  102
 ECPSu:  NPrtUS=   1 ThrOK=F
 FXYZ after ECPSu
 I=    0 X=   0.000000000000D+00 Y=   0.000000000000D+00 Z=   0.000000000000D+00
 I=    1 X=   0.000000000000D+00 Y=   0.000000000000D+00 Z=   0.000000000000D+00
 I=    2 X=   0.000000000000D+00 Y=   0.000000000000D+00 Z=   0.000000000000D+00
 I=    3 X=   0.000000000000D+00 Y=   0.000000000000D+00 Z=   0.000000000000D+00
 I=    4 X=   0.000000000000D+00 Y=   0.000000000000D+00 Z=   0.000000000000D+00
 I=    5 X=   0.000000000000D+00 Y=   0.000000000000D+00 Z=   0.000000000000D+00
 I=    6 X=   0.000000000000D+00 Y=   0.000000000000D+00 Z=   0.000000000000D+00
 I=    7 X=   0.000000000000D+00 Y=   0.000000000000D+00 Z=   0.000000000000D+00
 I=    8 X=   0.000000000000D+00 Y=   0.000000000000D+00 Z=   0.000000000000D+00
 I=    9 X=   0.000000000000D+00 Y=   0.000000000000D+00 Z=   0.000000000000D+00
 I=   10 X=   0.000000000000D+00 Y=   0.000000000000D+00 Z=   0.000000000000D+00
 l701 out
 I=    0 X=   8.940044686283D-01 Y=  -1.273516889490D+00 Z=  -8.713832015956D-01
 I=    1 X=  -1.688777416712D+01 Y=  -1.737411499859D+00 Z=  -1.504123532285D+01
 I=    2 X=  -6.720129297674D-01 Y=  -3.281086710856D-01 Z=  -6.300471697609D-01
 I=    3 X=   1.176378558240D+00 Y=   2.151611892987D+01 Z=   5.713761179854D+00
 I=    4 X=  -5.443035867449D+00 Y=  -1.345254043097D+01 Z=   1.709356135922D+01
 I=    5 X=  -5.677733591671D-01 Y=  -9.088328561970D+00 Z=   3.710688588673D+00
 I=    6 X=   2.065340833708D+01 Y=   1.321861083425D+01 Z=  -2.253259941209D+00
 I=    7 X=   1.085823273402D+00 Y=  -3.079100128236D+00 Z=  -5.172290497685D+00
 I=    8 X=   6.767953265923D-01 Y=  -3.707819271848D+00 Z=   4.525263506504D+00
 I=    9 X=  -1.108503981887D+00 Y=  -6.487595495119D+00 Z=  -1.906127248046D+00
 I=   10 X=   1.086694810075D+00 Y=   3.146174294963D+00 Z=  -6.040314454697D+00
 Leave Link  701 at Wed Mar 18 14:12:49 2015, MaxMem=    33554432 cpu:         0.3
 (Enter /usr/local/research/Gaussian09/g09-revD.01/g09/l702.exe)
 L702 exits ... SP integral derivatives will be done elsewhere.
 Leave Link  702 at Wed Mar 18 14:12:49 2015, MaxMem=    33554432 cpu:         0.0
 (Enter /usr/local/research/Gaussian09/g09-revD.01/g09/l703.exe)
 Compute integral first derivatives, UseDBF=F ICtDFT=           0.
 Integral derivatives from FoFJK, PRISM(SPDF).
 ICntrl=      2127.
 Calling FoFJK, ICntrl=      2127 FMM=F ISym2X=0 I1Cent= 0 IOpClX= 0 NMat=1 NMatS=1 NMatT=0.
 FoFJK:  IHMeth= 1 ICntrl=    2127 DoSepK=F KAlg= 0 I1Cent=   0 FoldK=F
 IRaf=         0 NMat=   1 IRICut=       1 DoRegI=T DoRafI=F ISym2E= 0.
 FoFCou: FMM=F IPFlag=           0 FMFlag=      100000 FMFlg1=         800
         NFxFlg=           0 DoJE=F BraDBF=F KetDBF=F FulRan=T
         wScrn=  0.000000 ICntrl=    2127 IOpCl=  0 I1Cent=           0 NGrid=           0
         NMat0=    1 NMatS0=      1 NMatT0=    0 NMatD0=    1 NMtDS0=    0 NMtDT0=    0
 Symmetry not used in FoFCou.
 FoFCou:  KetSym=F NOpSet=  1 NOpAb=1 NOp=  1.
 FoFCou:  CnvScl= 1.00D+00 Thresh= 1.00D-10 IAcrcy=      10.
 PrismS was handed    33451566 working-precision words and  1282 shell-pairs
 FoFCou: LinMIO=F DoNuc=F BraDBF=F KetDBF=F HaveP=T PDBF=F HaveZ=T HaveW=F
         NIJTC =       6 NIJTAt=       0 NIJTCD=       0 NIJTT =       6
         IJTBeg=       1 IJTEnd=       6 KLTBeg=       1 KLTEnd=       6
         IPTBeg=       1 IPTEnd=       6 IPTBCv=       1 IPTECv=       6
         IZTBeg=       1 IZTEnd=       6 IZTBCv=       1 IZTECv=       6
         IWTBeg=       7 IWTEnd=       6 IWTBCv=       7 IWTECv=       6
         INTBeg=       1 INTEnd=       0 IFTBCv=       1 IFTECv=       6
 NCel replicated for PrismC:     1
 CoulSu:  IncDef=  1024 NBBP=         822403 NTPThr=   100 NPartT=    1 Incr=        1024 LDynOK=F.
 CoulSu:  NPrtUS=   1 ThrOK=F IAlg=1 NPAlg=1 LenDen=           0 LWGrdD=           0 DoCopy=F.
 Enter PrismC: JobTyp=21 DoJE=F Cont=F.
 PrismC:  IPart=     0 DynPar=F LinDyn=F Incr=        1024 UseFst=F UseS4=T IGathr=2.
 PrismC was handed    33450241 working-precision words and  1282 shell-pairs
 IPart=  0 NShTot=      685520 NShNF=      685520 NShFF=           0 NBatch=       18695 AvBLen=        36.7
 CoulSu:  NxtVal=           1025.
 ReadGW:  IGet=0 IStart=           1 Next=           1 LGW=           0.
 Remaining memory in FofDFT       31.99 Mw
 CkSvGd:  ISavGI=        -1 IRadAn=       4 IRASav=       0 ISavGd=        -1.
 CalDSu:  NPrtUS=   1 ThrOK=F IAlg=1 NPAlg=1 DoDPD=F LenP=        7260 LenD1P=             0.
 IPart=  0 IRanGd=          0 ScrnBf=T ScrnGd=T RCrit=4.00D+00 DoMicB=T.
 IPart=  0        72473 of        80242 points in     169 batches and      533 microbatches, Max-NSigAt=      10 Max-NSgAt2=      10
 Forces at end of L703
 I=    0 X=   8.940044686283D-01 Y=  -1.273516889490D+00 Z=  -8.713832015956D-01
 I=    1 X=   1.036785146113D-03 Y=  -4.702203124631D-04 Z=  -6.287892880614D-04
 I=    2 X=  -2.976604973429D-03 Y=   1.183726136558D-03 Z=   1.562840261743D-03
 I=    3 X=   1.561450806233D-03 Y=  -3.592556052467D-04 Z=  -7.799619817490D-04
 I=    4 X=   1.374820888548D-03 Y=  -2.675071966269D-04 Z=  -7.372197535886D-04
 I=    5 X=   2.747036717295D-03 Y=  -2.572903715778D-03 Z=  -1.477553234860D-03
 I=    6 X=  -1.119810645381D-03 Y=   9.229343716299D-04 Z=   9.539032096955D-04
 I=    7 X=  -3.230112465779D-03 Y=   1.535446399490D-03 Z=   1.210798512032D-03
 I=    8 X=  -4.787319822798D-04 Y=   6.355814051036D-04 Z=   7.897592155839D-04
 I=    9 X=   9.778614223122D-04 Y=  -4.600420607854D-04 Z=  -4.586120762349D-04
 I=   10 X=   1.073050864697D-04 Y=  -1.477594212025D-04 Z=  -4.351648652072D-04
 Leave Link  703 at Wed Mar 18 14:13:01 2015, MaxMem=    33554432 cpu:        11.5
 (Enter /usr/local/research/Gaussian09/g09-revD.01/g09/l716.exe)
 FrcOut:
 IF    =   418 IFX   =   457 IFXYZ =   487
 IFFX  =   517 IFFFX =   517 IFLen =    39
 IFFLen=     0 IFFFLn=     0 IEDerv=   517
 LEDerv=  1493 IFroze=  2354 ICStrt= 28237
 Dipole        = 8.94004469D-01-1.27351689D+00-8.71383202D-01
 Forces in standard orientation:
 -------------------------------------------------------------------
 Center     Atomic                   Forces (Hartrees/Bohr)
 Number     Number              X              Y              Z
 -------------------------------------------------------------------
      1        9           0.001036785   -0.000470220   -0.000628789
      2        5          -0.002976605    0.001183726    0.001562840
      3        9           0.001561451   -0.000359256   -0.000779962
      4        9           0.001374821   -0.000267507   -0.000737220
      5        6           0.002747037   -0.002572904   -0.001477553
      6        8          -0.001119811    0.000922934    0.000953903
      7        7          -0.003230112    0.001535446    0.001210799
      8        1          -0.000478732    0.000635581    0.000789759
      9        1           0.000977861   -0.000460042   -0.000458612
     10        1           0.000107305   -0.000147759   -0.000435165
 -------------------------------------------------------------------
 ***** Axes restored to original set *****
 Rotating derivatives, DoTrsp=F IDiff=-1 LEDeriv=   1492 LFDPrp=       0 LDFDPr=       0.
 -------------------------------------------------------------------
 Center     Atomic                   Forces (Hartrees/Bohr)
 Number     Number              X              Y              Z
 -------------------------------------------------------------------
      1        9          -0.000159866    0.000212817    0.001273012
      2        5           0.000660664   -0.000513067   -0.003464699
      3        9          -0.000413317    0.000027248    0.001733194
      4        9          -0.000333871   -0.000036002    0.001546745
      5        6          -0.000371702    0.001890816    0.003554696
      6        8          -0.000088405   -0.000559171   -0.001641715
      7        7           0.001036935   -0.000923124   -0.003511391
      8        1          -0.000352579   -0.000373145   -0.000996654
      9        1          -0.000247052    0.000251198    0.001119840
     10        1           0.000269193    0.000022430    0.000386972
 -------------------------------------------------------------------
 Cartesian Forces:  Max     0.003554696 RMS     0.001373025
 Final forces over variables, Energy=-4.93586767D+02:
 -1.69167913D-03-1.49025133D-03-1.50218418D-03-4.03773103D-03
  4.49600037D-03-4.36676346D-04 8.70959628D-03 4.05607228D-03
  4.08159020D-03 2.36341913D-03 2.44645131D-03-3.83359423D-03
  2.42199571D-03-2.81188162D-03-3.86208852D-03-6.65588842D-04
  4.97775033D-04 1.51921453D-04 3.17400445D-04-2.10926158D-03
 -3.45810698D-04 1.17215819D-03-2.26232636D-04 1.09716441D-03
 -2.24690434D-04 6.85374714D-05 8.55385862D-05-2.34059418D-04
  5.91684866D-05 7.61696014D-05-3.33552832D-04-4.03249271D-05
 -2.33238122D-05-4.19432166D-04 1.26957695D-03-7.97068374D-04
 -9.96246127D-04 6.92762984D-04-1.37388233D-03
 Leave Link  716 at Wed Mar 18 14:13:01 2015, MaxMem=    33554432 cpu:         0.1
 (Enter /usr/local/research/Gaussian09/g09-revD.01/g09/l103.exe)

 GradGradGradGradGradGradGradGradGradGradGradGradGradGradGradGradGradGrad
 Berny optimization.
 Using GEDIIS/GDIIS optimizer.
 FormGI is forming the generalized inverse of G from B-inverse, IUseBI=4.
 Internal  Forces:  Max     0.003352064 RMS     0.001056574
 Search for a local minimum.
 Step number   2 out of a maximum of   49
 All quantities printed in internal units (Hartrees-Bohrs-Radians)
 RMS Force = .10566D-02 SwitMx=.10000D-02 MixMth= 1
 Mixed Optimization -- RFO/linear search
 Update second derivatives using D2CorX and points    1    2
 DE= -3.13D-04 DEPred=-4.49D-04 R= 6.98D-01
 TightC=F SS=  1.41D+00  RLast= 1.14D-01 DXNew= 5.0454D-01 3.4233D-01
 Trust test= 6.98D-01 RLast= 1.14D-01 DXMaxT set to 3.42D-01
 ITU=  1  0
 Use linear search instead of GDIIS.
     Eigenvalues ---    0.00225   0.01156   0.01543   0.04538   0.05658
[...]
     39  0.183209D-02  0.709018D-03 -0.184619D-02  0.383956D-02  0.508740D-03
               21            22            23            24            25 
     21  0.292166D-01
     22  0.126017D-01  0.299030D-01
     23 -0.130881D-01 -0.484318D-02  0.360306D-01
     24 -0.664212D-02 -0.878450D-02 -0.105126D-01  0.170388D-01
     25 -0.665681D-02 -0.106883D-01  0.104239D-01  0.294646D-04  0.182346D-01
     26 -0.157829D-02  0.913480D-02  0.120010D-02 -0.652358D-02  0.933606D-02
     27  0.229017D-02 -0.198887D-02 -0.825518D-02  0.603720D-02  0.999185D-02
     28 -0.157888D-02 -0.860878D-02  0.886516D-02 -0.300634D-03 -0.566459D-03
     29  0.349964D-02  0.112143D-01 -0.358629D-03 -0.685368D-02 -0.946497D-02
     30  0.736810D-02  0.906175D-04 -0.981391D-02  0.570710D-02 -0.880919D-02
     31 -0.600077D-02 -0.935364D-02  0.888819D-02  0.926379D-03 -0.328056D-03
     32 -0.922241D-03  0.104694D-01 -0.335606D-03 -0.562667D-02 -0.922657D-02
     33  0.294621D-02 -0.654240D-03 -0.979088D-02  0.693411D-02 -0.857079D-02
     34 -0.627450D-02 -0.429117D-02  0.275578D-02 -0.164067D-03  0.113618D-02
     35 -0.295160D-03  0.392283D-02  0.273562D-02  0.410119D-02 -0.468922D-03
     36  0.907059D-02 -0.316591D-02 -0.746397D-02 -0.368832D-02 -0.514318D-03
     37 -0.597977D-02 -0.214676D-02  0.323617D-02 -0.104768D-02  0.869500D-03
     38  0.000000D+00  0.606725D-02  0.321601D-02  0.321758D-02 -0.735602D-03
     39  0.936533D-02 -0.102149D-02 -0.698358D-02 -0.457193D-02 -0.780998D-03
               26            27            28            29            30 
     26  0.185085D-01
     27  0.936824D-02  0.184912D-01
     28 -0.970707D-02 -0.858397D-02  0.181711D-01
     29 -0.534676D-03 -0.920757D-02  0.903050D-02  0.179608D-01
     30 -0.967489D-02 -0.846169D-04  0.101536D-01  0.928789D-02  0.188782D-01
     31 -0.881579D-02 -0.920528D-02 -0.411335D-03 -0.889907D-02 -0.928855D-02
     32  0.356599D-03 -0.982888D-02 -0.955194D-02  0.312259D-04 -0.101543D-01
     33 -0.878361D-02 -0.705920D-03 -0.842885D-02 -0.864167D-02 -0.563981D-03
     34  0.639820D-03  0.160924D-02 -0.128034D-02 -0.177670D-02 -0.807282D-03
     35 -0.185729D-02 -0.688644D-03  0.640854D-03 -0.747512D-03  0.421132D-03
     36 -0.102423D-02 -0.810962D-03  0.671016D-03  0.161105D-03  0.374372D-03
     37  0.178256D-02  0.150196D-02 -0.139272D-02 -0.479659D-03 -0.760265D-03
     38 -0.714547D-03 -0.795925D-03  0.528472D-03  0.549528D-03  0.468149D-03
     39  0.118513D-03 -0.918243D-03  0.558634D-03  0.145814D-02  0.421389D-03
               31            32            33            34            35 
     31  0.187670D-01
     32  0.102793D-01  0.198624D-01
     33  0.988980D-02  0.967697D-02  0.177547D-01
     34  0.984587D-04 -0.397901D-03  0.571516D-03  0.148284D-01
     35  0.146317D-02  0.748066D-04  0.124345D-02  0.778172D-02  0.165986D-01
     36  0.417444D-03 -0.924677D-04  0.120799D-03  0.909247D-02  0.616341D-02
     37 -0.785383D-03  0.127679D-03 -0.152927D-03 -0.472240D-02 -0.112515D-01
     38  0.579331D-03  0.600387D-03  0.519008D-03 -0.117690D-01 -0.243462D-02
     39 -0.466398D-03  0.433113D-03 -0.603644D-03 -0.104583D-01 -0.128698D-01
               36            37            38            39 
     36  0.191191D-01
     37 -0.107506D-01  0.141966D-01
     38 -0.136797D-01  0.766750D-02  0.170019D-01
     39 -0.723996D-03  0.816835D-02  0.575688D-02  0.179027D-01
 Leave Link  716 at Wed Mar 18 14:25:32 2015, MaxMem=    33554432 cpu:         0.1
 (Enter /usr/local/research/Gaussian09/g09-revD.01/g09/l103.exe)

 GradGradGradGradGradGradGradGradGradGradGradGradGradGradGradGradGradGrad
 Berny optimization.
 Red2BG is reusing G-inverse.
 Internal  Forces:  Max     0.000006178 RMS     0.000001638
 Search for a local minimum.
 Step number   1 out of a maximum of    2
 All quantities printed in internal units (Hartrees-Bohrs-Radians)
 Second derivative matrix not updated -- analytic derivatives used.
 ITU=  0
     Eigenvalues ---    0.00054   0.00409   0.02190   0.03024   0.03912
     Eigenvalues ---    0.04722   0.05743   0.06949   0.08743   0.09450
     Eigenvalues ---    0.10467   0.14292   0.17847   0.18279   0.24867
     Eigenvalues ---    0.32936   0.33638   0.37628   0.38493   0.38946
     Eigenvalues ---    0.44836   0.45240   0.47659   1.00817
 Angle between quadratic step and forces=  71.93 degrees.
 Linear search not attempted -- first point.
 Iteration  1 RMS(Cart)=  0.00005864 RMS(Int)=  0.00000000
 Iteration  2 RMS(Cart)=  0.00000000 RMS(Int)=  0.00000000
 ITry= 1 IFail=0 DXMaxC= 1.38D-04 DCOld= 1.00D+10 DXMaxT= 3.00D-01 DXLimC= 3.00D+00 Rises=F
 Variable       Old X    -DE/DX   Delta X   Delta X   Delta X     New X
                                 (Linear)    (Quad)   (Total)
    R1        2.55715   0.00000   0.00000  -0.00001  -0.00001   2.55714
    R2        2.55317   0.00000   0.00000   0.00000   0.00000   2.55317
    R3        2.56838   0.00001   0.00000   0.00003   0.00003   2.56840
    R4        3.36454   0.00000   0.00000  -0.00005  -0.00005   3.36449
    R5        2.24579   0.00000   0.00000   0.00000   0.00000   2.24579
    R6        2.70719   0.00000   0.00000   0.00001   0.00001   2.70720
    R7        2.09957   0.00000   0.00000   0.00000   0.00000   2.09957
    R8        1.93263   0.00000   0.00000   0.00000   0.00000   1.93263
    R9        1.93349   0.00000   0.00000   0.00000   0.00000   1.93349
    A1        2.02844   0.00000   0.00000   0.00000   0.00000   2.02844
    A2        2.01790   0.00000   0.00000  -0.00001  -0.00001   2.01788
    A3        1.77360   0.00000   0.00000   0.00002   0.00002   1.77361
    A4        2.01551   0.00000   0.00000   0.00000   0.00000   2.01551
    A5        1.80644   0.00000   0.00000   0.00002   0.00002   1.80646
    A6        1.76218   0.00000   0.00000  -0.00001  -0.00001   1.76217
    A7        2.13797   0.00000   0.00000  -0.00002  -0.00002   2.13795
    A8        2.18807   0.00000   0.00000   0.00000   0.00000   2.18807
    A9        1.95642   0.00000   0.00000   0.00001   0.00001   1.95643
   A10        1.93959   0.00000   0.00000   0.00003   0.00003   1.93962
   A11        1.77938   0.00000   0.00000  -0.00004  -0.00004   1.77934
   A12        1.90804   0.00000   0.00000   0.00002   0.00002   1.90807
   A13        1.96568   0.00000   0.00000   0.00000   0.00000   1.96568
   A14        1.93345   0.00000   0.00000  -0.00003  -0.00003   1.93343
   A15        1.93196   0.00000   0.00000   0.00002   0.00002   1.93198
    D1        2.92005   0.00000   0.00000   0.00010   0.00010   2.92015
    D2       -1.26484   0.00000   0.00000   0.00009   0.00009  -1.26475
    D3        0.78054   0.00000   0.00000   0.00010   0.00010   0.78064
    D4        0.81026   0.00000   0.00000   0.00008   0.00008   0.81035
    D5        2.90855   0.00000   0.00000   0.00007   0.00007   2.90863
    D6       -1.32925   0.00000   0.00000   0.00008   0.00008  -1.32917
    D7       -1.28088   0.00000   0.00000   0.00009   0.00009  -1.28079
    D8        0.81741   0.00000   0.00000   0.00008   0.00008   0.81749
    D9        2.86280   0.00000   0.00000   0.00008   0.00008   2.86288
   D10       -1.96822   0.00000   0.00000   0.00005   0.00005  -1.96817
   D11        2.33092   0.00000   0.00000   0.00008   0.00008   2.33100
   D12        0.15654   0.00000   0.00000   0.00008   0.00008   0.15662
   D13        1.13445   0.00000   0.00000   0.00005   0.00005   1.13450
   D14       -0.84960   0.00000   0.00000   0.00008   0.00008  -0.84952
   D15       -3.02398   0.00000   0.00000   0.00008   0.00008  -3.02389
         Item               Value     Threshold  Converged?
 Maximum Force            0.000006     0.000450     YES
 RMS     Force            0.000002     0.000300     YES
 Maximum Displacement     0.000138     0.001800     YES
 RMS     Displacement     0.000059     0.001200     YES
 Predicted change in Energy=-5.243878D-10
 Optimization completed.
    -- Stationary point found.
                           ----------------------------
                           !   Optimized Parameters   !
                           ! (Angstroms and Degrees)  !
 --------------------------                            --------------------------
 ! Name  Definition              Value          Derivative Info.                !
 --------------------------------------------------------------------------------
 ! R1    R(1,2)                  1.3532         -DE/DX =    0.0                 !
 ! R2    R(2,3)                  1.3511         -DE/DX =    0.0                 !
 ! R3    R(2,4)                  1.3591         -DE/DX =    0.0                 !
 ! R4    R(2,7)                  1.7804         -DE/DX =    0.0                 !
 ! R5    R(5,6)                  1.1884         -DE/DX =    0.0                 !
 ! R6    R(5,7)                  1.4326         -DE/DX =    0.0                 !
 ! R7    R(5,8)                  1.111          -DE/DX =    0.0                 !
 ! R8    R(7,9)                  1.0227         -DE/DX =    0.0                 !
 ! R9    R(7,10)                 1.0232         -DE/DX =    0.0                 !
 ! A1    A(1,2,3)              116.2211         -DE/DX =    0.0                 !
 ! A2    A(1,2,4)              115.6171         -DE/DX =    0.0                 !
 ! A3    A(1,2,7)              101.6196         -DE/DX =    0.0                 !
 ! A4    A(3,2,4)              115.4804         -DE/DX =    0.0                 !
 ! A5    A(3,2,7)              103.5014         -DE/DX =    0.0                 !
 ! A6    A(4,2,7)              100.9656         -DE/DX =    0.0                 !
 ! A7    A(6,5,7)              122.4967         -DE/DX =    0.0                 !
 ! A8    A(6,5,8)              125.3672         -DE/DX =    0.0                 !
 ! A9    A(7,5,8)              112.0944         -DE/DX =    0.0                 !
 ! A10   A(2,7,5)              111.1306         -DE/DX =    0.0                 !
 ! A11   A(2,7,9)              101.9511         -DE/DX =    0.0                 !
 ! A12   A(2,7,10)             109.3228         -DE/DX =    0.0                 !
 ! A13   A(5,7,9)              112.625          -DE/DX =    0.0                 !
 ! A14   A(5,7,10)             110.7786         -DE/DX =    0.0                 !
 ! A15   A(9,7,10)             110.6931         -DE/DX =    0.0                 !
 ! D1    D(1,2,7,5)            167.3066         -DE/DX =    0.0                 !
 ! D2    D(1,2,7,9)            -72.4702         -DE/DX =    0.0                 !
 ! D3    D(1,2,7,10)            44.7216         -DE/DX =    0.0                 !
 ! D4    D(3,2,7,5)             46.4246         -DE/DX =    0.0                 !
 ! D5    D(3,2,7,9)            166.6478         -DE/DX =    0.0                 !
 ! D6    D(3,2,7,10)           -76.1604         -DE/DX =    0.0                 !
 ! D7    D(4,2,7,5)            -73.3889         -DE/DX =    0.0                 !
 ! D8    D(4,2,7,9)             46.8343         -DE/DX =    0.0                 !
 ! D9    D(4,2,7,10)           164.0261         -DE/DX =    0.0                 !
 ! D10   D(6,5,7,2)           -112.771          -DE/DX =    0.0                 !
 ! D11   D(6,5,7,9)            133.5516         -DE/DX =    0.0                 !
 ! D12   D(6,5,7,10)             8.9691         -DE/DX =    0.0                 !
 ! D13   D(8,5,7,2)             64.999          -DE/DX =    0.0                 !
 ! D14   D(8,5,7,9)            -48.6785         -DE/DX =    0.0                 !
 ! D15   D(8,5,7,10)          -173.261          -DE/DX =    0.0                 !
 --------------------------------------------------------------------------------
 GradGradGradGradGradGradGradGradGradGradGradGradGradGradGradGradGradGrad

 Leave Link  103 at Wed Mar 18 14:25:32 2015, MaxMem=    33554432 cpu:         0.0
 (Enter /usr/local/research/Gaussian09/g09-revD.01/g09/l9999.exe)

 Test job not archived.
 1\1\GINC-HEISENBERG\Freq\RPBE1PBE\def2SVP\C1H3B1F3N1O1\LEIN\18-Mar-201
 5\0\\#P Geom=AllCheck Guess=TCheck SCRF=Check Test GenChk RPBE1PBE/def
 2SVP Freq\\-- F3B...NH2CHO --\\0,1\F,-1.9381933886,0.3776089876,1.1405
 651893\B,-0.6022171553,0.1627823337,1.1294324419\F,0.1760873515,1.2275
 616261,1.4225264224\F,-0.1932425046,-1.0224626323,1.6539862234\C,1.105
 0287615,-0.072340734,-0.893251537\O,1.5980046746,0.7864767316,-1.55032
 71828\N,-0.2973825871,-0.1105270541,-0.603292399\H,1.6559047934,-0.903
 3996418,-0.4030462959\H,-0.7035299733,-1.0382076561,-0.7460270334\H,-0
 .8004599622,0.5925080393,-1.1505658288\\Version=EM64L-G09RevD.01\State
 =1-A\HF=-493.5870313\RMSD=1.950e-09\RMSF=4.515e-06\ZeroPoint=0.0615895
 \Thermal=0.0690258\Dipole=-0.1518588,-0.9587837,-1.4778281\DipoleDeriv
 =-1.0236419,0.0909202,0.1804874,0.1054535,-0.4314065,-0.0448345,0.1002
 498,-0.0100398,-0.5455188,1.7527177,-0.0099407,-0.1116939,-0.0490362,1
 .6887706,0.0857768,-0.3590724,0.0147161,2.1046238,-0.5530783,-0.225273
 ,-0.0958437,-0.1695941,-0.7352232,-0.2154538,0.0057404,-0.1216936,-0.5
 975694,-0.455541,0.1251428,-0.0603922,0.0864477,-0.7963854,0.2623804,0
 .0294469,0.1640178,-0.6868872,1.5373797,0.1236191,-0.5274931,0.1893165
 ,0.7166908,-0.4098555,-0.3062202,-0.3700777,0.6456178,-0.6730392,-0.06
 62884,0.1819463,-0.305733,-0.6001934,0.3499803,0.2331788,0.2362432,-0.
 5414862,-0.9900931,-0.0831923,0.3969963,0.0993633,-0.2714946,-0.104420
 2,0.4161687,0.0158895,-0.9883833,0.0164404,0.0364394,-0.0158438,0.0478
 975,-0.0216313,0.0517173,-0.0281594,0.0632604,0.0671952,0.1975873,0.05
 23595,0.0154549,0.0325215,0.2302454,0.0139431,-0.0755432,-0.0194074,0.
 3029994,0.1912685,-0.0437866,0.0363819,-0.0366367,0.2206276,0.0107661,
 -0.0157894,0.0270914,0.2394088\Polar=33.8841876,1.2946281,30.1349855,-
 4.5212518,-3.8963599,30.549728\PG=C01 [X(C1H3B1F3N1O1)]\NImag=0\\0.391
 17836,-0.05455702,0.06756754,-0.00938240,0.00023859,0.04677558,-0.3022
 9485,0.03986903,0.01066288,0.56141568,0.03737477,-0.06623985,-0.000570
 44,0.01527490,0.55564322,-0.00965300,0.00279553,-0.04967752,0.06880887
 ,-0.04496291,0.18212555,-0.04211002,-0.03048143,-0.01273283,-0.1424304
 5,-0.11124483,-0.02522386,0.16863107,-0.01457112,0.00513399,-0.0039954
 5,-0.11682850,-0.21715878,-0.03458719,0.15408927,0.27551895,-0.0023022
 1,-0.00208632,0.01197868,-0.03872880,-0.04936039,-0.06295699,0.0482813
 3,0.06426993,0.06719204,-0.02426503,0.03736910,-0.01733284,-0.08131073
 ,0.05965934,-0.02451464,0.01213529,-0.01571002,0.00291176,0.08735790,0
 .02419065,-0.01076135,0.01190867,0.06221364,-0.23827391,0.07050680,-0.
 00539742,-0.05083909,0.01420630,-0.08248374,0.30401931,-0.00508685,0.0
 0585448,0.00958125,-0.03277431,0.09052032,-0.08634630,-0.00083292,-0.0
 0117581,0.01239976,0.04290395,-0.11993059,0.10628799,0.00816210,-0.003
 00181,-0.01073218,0.00028314,0.00785593,0.05836693,-0.00878615,-0.0098
 7276,-0.00975078,-0.00567638,0.00807046,-0.01091858,0.60095403,0.00192
 743,-0.00126655,-0.00362595,0.00380396,0.00998269,0.00888233,-0.004390
 72,-0.00589449,-0.00111645,0.00163321,-0.00253494,-0.00122551,0.087656
 51,0.82223267,0.00113086,-0.00113998,-0.00366056,0.02168980,0.00015628
 ,-0.00454646,-0.00151379,0.00185579,0.00147644,-0.00222615,-0.00043542
 ,0.00145744,-0.12447275,-0.42742003,0.51060902,-0.00287927,0.00157617,
 0.00410457,-0.00311782,-0.00450825,-0.01793956,0.00307632,0.00302758,0
 .00249364,0.00201760,-0.00217081,0.00409083,-0.22806830,-0.21880040,0.
 17428116,0.25274573,-0.00260260,0.00169573,0.00326233,-0.00097991,-0.0
 0780337,-0.01388231,0.00355300,0.00455710,0.00122774,-0.00028364,0.000
 37816,0.00297876,-0.21093778,-0.52480712,0.34160509,0.27073625,0.53769
 816,0.00144095,-0.00063429,-0.00094803,-0.00257161,0.00211145,0.005650
 59,-0.00003556,-0.00116039,-0.00140535,0.00061662,0.00005993,-0.001710
 10,0.16764115,0.34002470,-0.32409465,-0.21805479,-0.38689560,0.3220202
 7,-0.02384707,0.00944436,0.03517273,-0.04083163,-0.00445660,-0.0425012
 0,0.00918354,-0.00090714,-0.00552915,0.00954080,-0.00288296,-0.0014429
 7,-0.21525880,0.03826054,0.01510435,-0.04433359,-0.04310698,0.03554357
 ,0.59118128,0.00860123,0.00383718,-0.00844745,0.00130162,-0.03802525,0
 .01341511,-0.00621010,-0.01025116,-0.02667335,-0.00045277,-0.00186743,
 0.02215366,0.02064142,-0.11891275,0.01733908,-0.05350283,0.00985456,0.
 02047641,0.01700008,0.75107752,0.02548561,-0.00671462,-0.01971532,-0.0
 0758250,0.01037598,0.02799478,-0.01049351,-0.02340100,-0.02463336,-0.0
 0480976,0.02085055,-0.03976579,-0.02409720,0.01018502,-0.08058472,0.05
 112866,0.02393456,0.00167624,0.10815933,-0.13777041,0.30759251,0.00025
 041,-0.00024354,0.00099611,-0.00223297,0.00189618,-0.00341149,0.000688
 95,0.00001403,0.00051317,0.00132040,-0.00164753,0.00039991,-0.12839426
 ,0.09300434,-0.05390175,0.01970732,-0.01539319,0.01072368,-0.02163100,
 0.02518672,-0.01156524,0.13530504,-0.00005430,-0.00001864,-0.00003307,
 0.00026565,-0.00020696,0.00162463,-0.00021995,-0.00008376,-0.00031339,
 -0.00074289,0.00021751,-0.00000464,0.09657794,-0.18815649,0.06956026,0
 .00385005,-0.02024861,0.02863611,0.00152437,0.00754834,0.00394944,-0.1
 0265619,0.19925569,-0.00057402,0.00023274,0.00063353,-0.00085678,-0.00
 071739,0.00006508,0.00031773,-0.00004947,-0.00013507,-0.00001292,0.000
 41609,-0.00036447,-0.06119025,0.07389702,-0.10346685,-0.00161246,0.029
 27279,0.00101474,0.00618569,0.00007404,0.01271544,0.05435951,-0.104675
 32,0.08799873,-0.00177779,-0.00068857,-0.00040848,0.00504501,0.0021112
 5,-0.00125058,0.00017019,0.00042074,0.00140902,-0.00099178,0.00059472,
 0.00033088,-0.00449611,-0.03492685,-0.00478710,-0.00675196,0.00221956,
 0.00278187,-0.11691503,-0.13114085,-0.02883232,0.00028392,0.00236759,0
 .00103961,0.11595655,-0.00041595,0.00080706,0.00164188,-0.00177756,-0.
 00308583,-0.00586568,0.00031170,0.00074882,0.00013863,0.00068126,-0.00
 161123,0.00296246,-0.00256226,0.00467869,0.00177493,0.00180481,0.00147
 403,-0.00242537,-0.12932948,-0.37001440,-0.03775390,0.00048806,0.00005
 170,0.00043499,0.14139348,0.38140938,-0.00076862,0.00294901,0.00147134
 ,-0.00815843,-0.02193532,-0.00628145,0.00082024,-0.00039193,-0.0055114
 3,0.00132003,0.00204808,0.00378796,0.00909264,0.00953694,-0.00405695,0
 .00323315,-0.00078555,0.00035596,-0.03999253,-0.05546746,-0.03212442,-
 0.00051114,-0.00027164,-0.00029570,0.02455658,0.04723614,0.04031368,-0
 .00241685,0.00071371,-0.00034756,0.00547461,-0.00396269,-0.00268148,-0
 .00055874,0.00033790,0.00070203,-0.00012807,-0.00048701,0.00333006,-0.
 01871926,0.03183199,-0.02530463,0.00760396,-0.00320470,0.00191411,-0.1
 4708851,0.11857549,-0.09739308,-0.00529780,-0.00091226,0.00234389,0.00
 947701,-0.01059405,0.01040809,0.15165365,0.00010690,-0.00075509,-0.000
 37911,-0.00314284,0.00516805,0.00207369,-0.00000951,-0.00173156,-0.000
 29270,0.00033015,0.00127297,-0.00213312,0.00557236,0.00467830,-0.00329
 601,-0.00201256,-0.00279863,-0.00019296,0.11445381,-0.23324661,0.13634
 438,-0.00064889,0.00164123,0.00111451,0.01764895,-0.01445822,0.0170817
 2,-0.13229837,0.24022956,-0.00029032,-0.00149515,0.00356106,-0.0104891
 2,0.01438241,-0.00602728,0.00141316,-0.00136448,0.00159528,0.00114396,
 0.00036958,-0.00532774,0.00606103,-0.00913807,0.00686727,-0.00172519,-
 0.00071781,-0.00255966,-0.11069982,0.15490037,-0.15315534,0.00239724,0
 .00152763,0.00183457,0.00516051,-0.00814408,0.00234102,0.10702856,-0.1
 5032039,0.15087082\\0.00000066,0.00000436,0.00000373,0.00000885,-0.000
 00787,0.00000760,0.00000733,-0.00000534,0.00000325,-0.00000211,0.00000
 084,-0.00000510,-0.00000465,0.00000114,-0.00000119,0.00000146,-0.00000
 119,-0.00000160,0.00000059,0.00000234,-0.00000180,-0.00000415,-0.00000
 531,-0.00000511,-0.00000609,0.00000476,-0.00000450,-0.00000189,0.00000
 627,0.00000472\\\@


 WHEN YOU REACH FOR THE STARS, YOU MAY NOT QUITE GET ONE,
 BUT YOU WON'T COME UP WITH A HANDFUL OF MUD, EITHER.

                                         -- LEO BURNETT (AD AGENCY HEAD)
 Job cpu time:       0 days  0 hours  4 minutes 59.2 seconds.
 File lengths (MBytes):  RWF=     21 Int=      0 D2E=      0 Chk=      2 Scr=      1
 Normal termination of Gaussian 09 at Wed Mar 18 14:25:32 2015.
