 Entering Gaussian System, Link 0=g09
 Initial command:
 /usr/local/research/Gaussian09/g09-revD.01/g09/l1.exe "/scratch/lein/Gau-2116.inp" -scrdir="/scratch/lein/"
 Entering Link 1 = /usr/local/research/Gaussian09/g09-revD.01/g09/l1.exe PID=      2119.
  
 Copyright (c) 1988,1990,1992,1993,1995,1998,2003,2009,2013,
            Gaussian, Inc.  All Rights Reserved.
  
 This is part of the Gaussian(R) 09 program.  It is based on
 the Gaussian(R) 03 system (copyright 2003, Gaussian, Inc.),
 the Gaussian(R) 98 system (copyright 1998, Gaussian, Inc.),
 the Gaussian(R) 94 system (copyright 1995, Gaussian, Inc.),
 the Gaussian 92(TM) system (copyright 1992, Gaussian, Inc.),
 the Gaussian 90(TM) system (copyright 1990, Gaussian, Inc.),
 the Gaussian 88(TM) system (copyright 1988, Gaussian, Inc.),
 the Gaussian 86(TM) system (copyright 1986, Carnegie Mellon
 University), and the Gaussian 82(TM) system (copyright 1983,
 Carnegie Mellon University). Gaussian is a federally registered
 trademark of Gaussian, Inc.
  
 This software contains proprietary and confidential information,
 including trade secrets, belonging to Gaussian, Inc.
  
 This software is provided under written license and may be
 used, copied, transmitted, or stored only in accord with that
 written license.
  
 The following legend is applicable only to US Government
 contracts under FAR:
  
                    RESTRICTED RIGHTS LEGEND
  
 Use, reproduction and disclosure by the US Government is
 subject to restrictions as set forth in subparagraphs (a)
 and (c) of the Commercial Computer Software - Restricted
 Rights clause in FAR 52.227-19.
  
 Gaussian, Inc.
 340 Quinnipiac St., Bldg. 40, Wallingford CT 06492
  
  
 ---------------------------------------------------------------
 Warning -- This program may not be used in any manner that
 competes with the business of Gaussian, Inc. or will provide
 assistance to any competitor of Gaussian, Inc.  The licensee
 of this program is prohibited from giving any competitor of
 Gaussian, Inc. access to this program.  By using this program,
 the user acknowledges that Gaussian, Inc. is engaged in the
 business of creating and licensing software in the field of
 computational chemistry and represents and warrants to the
 licensee that it is not a competitor of Gaussian, Inc. and that
 it will not use this program in any manner prohibited above.
 ---------------------------------------------------------------
  

 Cite this work as:
 Gaussian 09, Revision D.01,
 M. J. Frisch, G. W. Trucks, H. B. Schlegel, G. E. Scuseria, 
 M. A. Robb, J. R. Cheeseman, G. Scalmani, V. Barone, B. Mennucci, 
 G. A. Petersson, H. Nakatsuji, M. Caricato, X. Li, H. P. Hratchian, 
 A. F. Izmaylov, J. Bloino, G. Zheng, J. L. Sonnenberg, M. Hada, 
 M. Ehara, K. Toyota, R. Fukuda, J. Hasegawa, M. Ishida, T. Nakajima, 
 Y. Honda, O. Kitao, H. Nakai, T. Vreven, J. A. Montgomery, Jr., 
 J. E. Peralta, F. Ogliaro, M. Bearpark, J. J. Heyd, E. Brothers, 
 K. N. Kudin, V. N. Staroverov, T. Keith, R. Kobayashi, J. Normand, 
 K. Raghavachari, A. Rendell, J. C. Burant, S. S. Iyengar, J. Tomasi, 
 M. Cossi, N. Rega, J. M. Millam, M. Klene, J. E. Knox, J. B. Cross, 
 V. Bakken, C. Adamo, J. Jaramillo, R. Gomperts, R. E. Stratmann, 
 O. Yazyev, A. J. Austin, R. Cammi, C. Pomelli, J. W. Ochterski, 
 R. L. Martin, K. Morokuma, V. G. Zakrzewski, G. A. Voth, 
 P. Salvador, J. J. Dannenberg, S. Dapprich, A. D. Daniels, 
 O. Farkas, J. B. Foresman, J. V. Ortiz, J. Cioslowski, 
 and D. J. Fox, Gaussian, Inc., Wallingford CT, 2013.
 
 ******************************************
 Gaussian 09:  EM64L-G09RevD.01 24-Apr-2013
                18-Mar-2015 
 ******************************************
 %chk=g09-h3b-nh3.chk
 ----------------------------------------------------------------------
 #p pbe1pbe def2svp opt freq pop(hirshfeld) density=current iop(7/33=1)
  iop(6/80=1)
 ----------------------------------------------------------------------
 1/14=-1,18=20,19=15,26=3,38=1/1,3;
 2/9=110,12=2,17=6,18=5,40=1/2;
 3/5=43,7=101,11=2,16=1,25=1,30=1,71=1,74=-13/1,2,3;
 4//1;
 5/5=2,38=5/2;
 6/7=2,8=2,9=2,10=2,22=-1,28=1,79=1,80=1/1;
 7/33=1/1,2,3,16;
 1/14=-1,18=20,19=15,26=3/3(2);
 2/9=110/2;
 99//99;
 2/9=110/2;
 3/5=43,7=101,11=2,16=1,25=1,30=1,71=1,74=-13/1,2,3;
 4/5=5,16=3,69=1/1;
 5/5=2,38=5/2;
 7/33=1/1,2,3,16;
 1/14=-1,18=20,19=15,26=3/3(-5);
 2/9=110/2;
 6/7=2,8=2,9=2,10=2,19=2,22=-1,28=1,79=1,80=1/1;
 99/9=1/99;
 Leave Link    1 at Wed Mar 18 13:58:30 2015, MaxMem=           0 cpu:         0.1
 (Enter /usr/local/research/Gaussian09/g09-revD.01/g09/l101.exe)
 ---------------
 -- H3B...NH3 --
 ---------------
 Symbolic Z-matrix:
 Charge =  0 Multiplicity = 1
 H                     0.3079   -0.67935  -0.0714 
 H                     0.30792   0.83386   0.80225 
 H                     0.30792   0.83386  -0.94505 
 H                    -1.94541   1.33829  -0.0714 
 H                    -1.94543  -0.17492  -0.94505 
 H                    -1.94543  -0.17492   0.80225 
 N                    -0.04876   0.32946  -0.0714 
 B                    -1.58876   0.32948  -0.0714 
 
 NAtoms=      8 NQM=        8 NQMF=       0 NMMI=      0 NMMIF=      0
                NMic=       0 NMicF=      0.
                    Isotopes and Nuclear Properties:
 (Nuclear quadrupole moments (NQMom) in fm**2, nuclear magnetic moments (NMagM)
  in nuclear magnetons)

  Atom         1           2           3           4           5           6           7           8
 IAtWgt=           1           1           1           1           1           1          14          11
 AtmWgt=   1.0078250   1.0078250   1.0078250   1.0078250   1.0078250   1.0078250  14.0030740  11.0093053
 NucSpn=           1           1           1           1           1           1           2           3
 AtZEff=   0.0000000   0.0000000   0.0000000   0.0000000   0.0000000   0.0000000   0.0000000   0.0000000
 NQMom=    0.0000000   0.0000000   0.0000000   0.0000000   0.0000000   0.0000000   2.0440000   4.0590000
 NMagM=    2.7928460   2.7928460   2.7928460   2.7928460   2.7928460   2.7928460   0.4037610   2.6886370
 AtZNuc=   1.0000000   1.0000000   1.0000000   1.0000000   1.0000000   1.0000000   7.0000000   5.0000000
 Leave Link  101 at Wed Mar 18 13:58:31 2015, MaxMem=    33554432 cpu:         0.2
 (Enter /usr/local/research/Gaussian09/g09-revD.01/g09/l103.exe)

 GradGradGradGradGradGradGradGradGradGradGradGradGradGradGradGradGradGrad
 Berny optimization.
 Initialization pass.
                           ----------------------------
                           !    Initial Parameters    !
                           ! (Angstroms and Degrees)  !
 --------------------------                            --------------------------
 ! Name  Definition              Value          Derivative Info.                !
 --------------------------------------------------------------------------------
 ! R1    R(1,7)                  1.07           estimate D2E/DX2                !
 ! R2    R(2,7)                  1.07           estimate D2E/DX2                !
 ! R3    R(3,7)                  1.07           estimate D2E/DX2                !
 ! R4    R(4,8)                  1.07           estimate D2E/DX2                !
 ! R5    R(5,8)                  1.07           estimate D2E/DX2                !
 ! R6    R(6,8)                  1.07           estimate D2E/DX2                !
 ! R7    R(7,8)                  1.54           estimate D2E/DX2                !
 ! A1    A(1,7,2)              109.4712         estimate D2E/DX2                !
 ! A2    A(1,7,3)              109.4712         estimate D2E/DX2                !
 ! A3    A(1,7,8)              109.4712         estimate D2E/DX2                !
 ! A4    A(2,7,3)              109.4713         estimate D2E/DX2                !
 ! A5    A(2,7,8)              109.4712         estimate D2E/DX2                !
 ! A6    A(3,7,8)              109.4712         estimate D2E/DX2                !
 ! A7    A(4,8,5)              109.4713         estimate D2E/DX2                !
 ! A8    A(4,8,6)              109.4712         estimate D2E/DX2                !
 ! A9    A(4,8,7)              109.4712         estimate D2E/DX2                !
 ! A10   A(5,8,6)              109.4712         estimate D2E/DX2                !
 ! A11   A(5,8,7)              109.4712         estimate D2E/DX2                !
 ! A12   A(6,8,7)              109.4712         estimate D2E/DX2                !
 ! D1    D(1,7,8,4)            180.0            estimate D2E/DX2                !
 ! D2    D(1,7,8,5)            -60.0            estimate D2E/DX2                !
 ! D3    D(1,7,8,6)             60.0            estimate D2E/DX2                !
 ! D4    D(2,7,8,4)             60.0            estimate D2E/DX2                !
 ! D5    D(2,7,8,5)           -180.0            estimate D2E/DX2                !
 ! D6    D(2,7,8,6)            -60.0            estimate D2E/DX2                !
 ! D7    D(3,7,8,4)            -60.0            estimate D2E/DX2                !
 ! D8    D(3,7,8,5)             60.0            estimate D2E/DX2                !
 ! D9    D(3,7,8,6)            180.0            estimate D2E/DX2                !
 --------------------------------------------------------------------------------
 Trust Radius=3.00D-01 FncErr=1.00D-07 GrdErr=1.00D-06
 Number of steps in this run=     38 maximum allowed number of steps=    100.
 GradGradGradGradGradGradGradGradGradGradGradGradGradGradGradGradGradGrad

 Leave Link  103 at Wed Mar 18 13:58:31 2015, MaxMem=    33554432 cpu:         0.0
 (Enter /usr/local/research/Gaussian09/g09-revD.01/g09/l202.exe)
                          Input orientation:                          
 ---------------------------------------------------------------------
 Center     Atomic      Atomic             Coordinates (Angstroms)
 Number     Number       Type             X           Y           Z
 ---------------------------------------------------------------------
      1          1           0        0.307897   -0.679352   -0.071398
      2          1           0        0.307915    0.833856    0.802254
      3          1           0        0.307915    0.833856   -0.945049
      4          1           0       -1.945411    1.338287   -0.071397
      5          1           0       -1.945430   -0.174922   -0.945049
      6          1           0       -1.945431   -0.174921    0.802254
      7          7           0       -0.048758    0.329458   -0.071398
      8          5           0       -1.588758    0.329477   -0.071398
 ---------------------------------------------------------------------
                    Distance matrix (angstroms):
                    1          2          3          4          5
     1  H    0.000000
     2  H    1.747302   0.000000
     3  H    1.747302   1.747303   0.000000
     4  H    3.024610   2.468846   2.468846   0.000000
     5  H    2.468846   3.024610   2.468846   1.747303   0.000000
     6  H    2.468846   2.468846   3.024610   1.747303   1.747303
     7  N    1.070000   1.070000   1.070000   2.148263   2.148263
     8  B    2.148263   2.148263   2.148263   1.070000   1.070000
                    6          7          8
     6  H    0.000000
     7  N    2.148263   0.000000
     8  B    1.070000   1.540000   0.000000
 Stoichiometry    BH6N
 Framework group  C3V[C3(BN),3SGV(H2)]
 Deg. of freedom     5
 Full point group                 C3V     NOp   6
 Largest Abelian subgroup         CS      NOp   2
 Largest concise Abelian subgroup CS      NOp   2
                         Standard orientation:                         
 ---------------------------------------------------------------------
 Center     Atomic      Atomic             Coordinates (Angstroms)
 Number     Number       Type             X           Y           Z
 ---------------------------------------------------------------------
      1          1           0        0.000000    1.008806    1.041111
      2          1           0        0.873651   -0.504403    1.041111
      3          1           0       -0.873651   -0.504403    1.041111
      4          1           0        0.000000   -1.008806   -1.212222
      5          1           0       -0.873651    0.504403   -1.212222
      6          1           0        0.873651    0.504403   -1.212222
      7          7           0        0.000000    0.000000    0.684444
      8          5           0        0.000000    0.000000   -0.855556
 ---------------------------------------------------------------------
 Rotational constants (GHZ):     82.1231852     19.8877525     19.8877525
 Leave Link  202 at Wed Mar 18 13:58:31 2015, MaxMem=    33554432 cpu:         0.0
 (Enter /usr/local/research/Gaussian09/g09-revD.01/g09/l301.exe)
 Standard basis: def2SVP (5D, 7F)
 Ernie: Thresh=  0.10000D-02 Tol=  0.10000D-05 Strict=F.
 There are    40 symmetry adapted cartesian basis functions of A'  symmetry.
 There are    20 symmetry adapted cartesian basis functions of A"  symmetry.
 There are    38 symmetry adapted basis functions of A'  symmetry.
 There are    20 symmetry adapted basis functions of A"  symmetry.
    58 basis functions,    92 primitive gaussians,    60 cartesian basis functions
     9 alpha electrons        9 beta electrons
       nuclear repulsion energy        42.3267009471 Hartrees.
 IExCor= 1009 DFT=T Ex+Corr=PBE1PBE ExCW=0 ScaHFX=  0.250000
 ScaDFX=  0.750000  0.750000  1.000000  1.000000 ScalE2=  1.000000  1.000000
 IRadAn=      0 IRanWt=     -1 IRanGd=            0 ICorTp=0 IEmpDi=  4
 NAtoms=    8 NActive=    8 NUniq=    4 SFac= 4.00D+00 NAtFMM=   60 NAOKFM=F Big=F
 Integral buffers will be    131072 words long.
 Raffenetti 2 integral format.
 Two-electron integral symmetry is turned on.
 Leave Link  301 at Wed Mar 18 13:58:31 2015, MaxMem=    33554432 cpu:         0.1
 (Enter /usr/local/research/Gaussian09/g09-revD.01/g09/l302.exe)
 NPDir=0 NMtPBC=     1 NCelOv=     1 NCel=       1 NClECP=     1 NCelD=      1
         NCelK=      1 NCelE2=     1 NClLst=     1 CellRange=     0.0.
 One-electron integrals computed using PRISM.
 One-electron integral symmetry used in STVInt
   6 Symmetry operations used in ECPInt.
 ECPInt:  NShTT=     465 NPrTT=    1529 LenC2=     466 LenP2D=    1450.
 LDataN:  DoStor=T MaxTD1= 4 Len=   56
 NBasis=    58 RedAO= T EigKep=  3.66D-03  NBF=    38    20
 NBsUse=    58 1.00D-06 EigRej= -1.00D+00 NBFU=    38    20
 Precomputing XC quadrature grid using
 IXCGrd= 4 IRadAn=           0 IRanWt=          -1 IRanGd=           0 AccXCQ= 0.00D+00.
 Generated NRdTot=       0 NPtTot=           0 NUsed=           0 NTot=          32
 NSgBfM=    60    60    60    60    60 MxSgAt=     8 MxSgA2=     8.
 Leave Link  302 at Wed Mar 18 13:58:31 2015, MaxMem=    33554432 cpu:         0.3
 (Enter /usr/local/research/Gaussian09/g09-revD.01/g09/l303.exe)
 DipDrv:  MaxL=1.
 Leave Link  303 at Wed Mar 18 13:58:31 2015, MaxMem=    33554432 cpu:         0.1
 (Enter /usr/local/research/Gaussian09/g09-revD.01/g09/l401.exe)
 ExpMin= 8.36D-02 ExpMax= 1.71D+03 ExpMxC= 2.58D+02 IAcc=2 IRadAn=         4 AccDes= 0.00D+00
 Harris functional with IExCor= 1009 and IRadAn=       4 diagonalized for initial guess.
 HarFok:  IExCor= 1009 AccDes= 0.00D+00 IRadAn=         4 IDoV= 1 UseB2=F ITyADJ=14
 ICtDFT=  3500011 ScaDFX=  1.000000  1.000000  1.000000  1.000000
 FoFCou: FMM=F IPFlag=           0 FMFlag=      100000 FMFlg1=           0
         NFxFlg=           0 DoJE=T BraDBF=F KetDBF=T FulRan=T
         wScrn=  0.000000 ICntrl=     500 IOpCl=  0 I1Cent=   200000004 NGrid=           0
         NMat0=    1 NMatS0=      1 NMatT0=    0 NMatD0=    1 NMtDS0=    0 NMtDT0=    0
 Petite list used in FoFCou.
 Harris En= -83.1312782674301    
 JPrj=0 DoOrth=F DoCkMO=F.
 Initial guess orbital symmetries:
       Occupied  (A1) (A1) (A1) (A1) (E) (E) (A1) (E) (E)
       Virtual   (A1) (E) (E) (A1) (E) (E) (A1) (E) (E) (A1) (A1)
                 (E) (E) (A1) (E) (E) (E) (E) (A1) (A1) (E) (E)
                 (A1) (E) (E) (A1) (A2) (E) (E) (A2) (E) (E) (E)
                 (E) (A1) (E) (E) (A1) (E) (E) (A1) (A1) (E) (E)
                 (E) (E) (A1) (E) (E)
 The electronic state of the initial guess is 1-A1.
 Leave Link  401 at Wed Mar 18 13:58:32 2015, MaxMem=    33554432 cpu:         0.5
 (Enter /usr/local/research/Gaussian09/g09-revD.01/g09/l502.exe)
 Closed shell SCF:
 Using DIIS extrapolation, IDIIS=  1040.
 Integral symmetry usage will be decided dynamically.
 Keep R1 ints in memory in symmetry-blocked form, NReq=2380612.
 IVT=       30386 IEndB=       30386 NGot=    33554432 MDV=    32778135
 LenX=    32778135 LenY=    32774094
 Requested convergence on RMS density matrix=1.00D-08 within 128 cycles.
 Requested convergence on MAX density matrix=1.00D-06.
 Requested convergence on             energy=1.00D-06.
 No special actions if energy rises.
 FoFCou: FMM=F IPFlag=           0 FMFlag=           0 FMFlg1=           0
         NFxFlg=           0 DoJE=F BraDBF=F KetDBF=F FulRan=T
         wScrn=  0.000000 ICntrl=     600 IOpCl=  0 I1Cent=           0 NGrid=           0
         NMat0=    1 NMatS0=   1711 NMatT0=    0 NMatD0=    1 NMtDS0=    0 NMtDT0=    0
 Petite list used in FoFCou.
 Integral accuracy reduced to 1.0D-05 until final iterations.

 Cycle   1  Pass 0  IDiag  1:
 E= -82.8585389348672    
 DIIS: error= 3.92D-02 at cycle   1 NSaved=   1.
 NSaved= 1 IEnMin= 1 EnMin= -82.8585389348672     IErMin= 1 ErrMin= 3.92D-02
 ErrMax= 3.92D-02  0.00D+00 EMaxC= 1.00D-01 BMatC= 9.37D-02 BMatP= 9.37D-02
 IDIUse=3 WtCom= 6.08D-01 WtEn= 3.92D-01
 Coeff-Com:  0.100D+01
 Coeff-En:   0.100D+01
 Coeff:      0.100D+01
 Gap=     0.230 Goal=   None    Shift=    0.000
 GapD=    0.230 DampG=1.000 DampE=0.500 DampFc=0.5000 IDamp=-1.
 Damping current iteration by 5.00D-01
 RMSDP=1.18D-02 MaxDP=1.50D-01              OVMax= 2.09D-01

 Cycle   2  Pass 0  IDiag  1:
 E= -82.9285037571829     Delta-E=       -0.069964822316 Rises=F Damp=T
 DIIS: error= 9.19D-03 at cycle   2 NSaved=   2.
 NSaved= 2 IEnMin= 2 EnMin= -82.9285037571829     IErMin= 2 ErrMin= 9.19D-03
 ErrMax= 9.19D-03  0.00D+00 EMaxC= 1.00D-01 BMatC= 3.33D-03 BMatP= 9.37D-02
 IDIUse=3 WtCom= 9.08D-01 WtEn= 9.19D-02
 Coeff-Com: -0.646D-01 0.106D+01
 Coeff-En:   0.000D+00 0.100D+01
 Coeff:     -0.586D-01 0.106D+01
 Gap=     0.270 Goal=   None    Shift=    0.000
 RMSDP=2.15D-03 MaxDP=3.10D-02 DE=-7.00D-02 OVMax= 8.98D-02

 Cycle   3  Pass 0  IDiag  1:
 E= -82.9922176525343     Delta-E=       -0.063713895351 Rises=F Damp=F
 DIIS: error= 5.69D-03 at cycle   3 NSaved=   3.
 NSaved= 3 IEnMin= 3 EnMin= -82.9922176525343     IErMin= 3 ErrMin= 5.69D-03
 ErrMax= 5.69D-03  0.00D+00 EMaxC= 1.00D-01 BMatC= 2.10D-03 BMatP= 3.33D-03
 IDIUse=3 WtCom= 9.43D-01 WtEn= 5.69D-02
 Coeff-Com: -0.554D-01 0.489D+00 0.566D+00
 Coeff-En:   0.000D+00 0.000D+00 0.100D+01
 Coeff:     -0.523D-01 0.461D+00 0.591D+00
 Gap=     0.292 Goal=   None    Shift=    0.000
 RMSDP=7.02D-04 MaxDP=1.35D-02 DE=-6.37D-02 OVMax= 1.45D-02

 Cycle   4  Pass 0  IDiag  1:
 E= -82.9939643902945     Delta-E=       -0.001746737760 Rises=F Damp=F
 DIIS: error= 1.87D-03 at cycle   4 NSaved=   4.
 NSaved= 4 IEnMin= 4 EnMin= -82.9939643902945     IErMin= 4 ErrMin= 1.87D-03
 ErrMax= 1.87D-03  0.00D+00 EMaxC= 1.00D-01 BMatC= 1.85D-04 BMatP= 2.10D-03
 IDIUse=3 WtCom= 9.81D-01 WtEn= 1.87D-02
 Coeff-Com: -0.118D-01 0.518D-01 0.246D+00 0.714D+00
 Coeff-En:   0.000D+00 0.000D+00 0.000D+00 0.100D+01
 Coeff:     -0.116D-01 0.508D-01 0.241D+00 0.719D+00
 Gap=     0.290 Goal=   None    Shift=    0.000
 RMSDP=1.73D-04 MaxDP=3.77D-03 DE=-1.75D-03 OVMax= 3.42D-03

 Cycle   5  Pass 0  IDiag  1:
 E= -82.9941248543450     Delta-E=       -0.000160464051 Rises=F Damp=F
 DIIS: error= 1.49D-04 at cycle   5 NSaved=   5.
 NSaved= 5 IEnMin= 5 EnMin= -82.9941248543450     IErMin= 5 ErrMin= 1.49D-04
 ErrMax= 1.49D-04  0.00D+00 EMaxC= 1.00D-01 BMatC= 1.60D-06 BMatP= 1.85D-04
 IDIUse=3 WtCom= 9.99D-01 WtEn= 1.49D-03
 Coeff-Com: -0.144D-02-0.302D-02 0.423D-01 0.172D+00 0.790D+00
 Coeff-En:   0.000D+00 0.000D+00 0.000D+00 0.000D+00 0.100D+01
 Coeff:     -0.144D-02-0.301D-02 0.423D-01 0.172D+00 0.790D+00
 Gap=     0.290 Goal=   None    Shift=    0.000
 RMSDP=2.08D-05 MaxDP=2.42D-04 DE=-1.60D-04 OVMax= 4.51D-04

 Cycle   6  Pass 0  IDiag  1:
 E= -82.9941265627448     Delta-E=       -0.000001708400 Rises=F Damp=F
 DIIS: error= 1.79D-05 at cycle   6 NSaved=   6.
 NSaved= 6 IEnMin= 6 EnMin= -82.9941265627448     IErMin= 6 ErrMin= 1.79D-05
 ErrMax= 1.79D-05  0.00D+00 EMaxC= 1.00D-01 BMatC= 8.84D-09 BMatP= 1.60D-06
 IDIUse=1 WtCom= 1.00D+00 WtEn= 0.00D+00
 Coeff-Com:  0.852D-04-0.865D-03-0.233D-02-0.821D-02 0.200D-01 0.991D+00
 Coeff:      0.852D-04-0.865D-03-0.233D-02-0.821D-02 0.200D-01 0.991D+00
 Gap=     0.290 Goal=   None    Shift=    0.000
 RMSDP=2.69D-06 MaxDP=4.76D-05 DE=-1.71D-06 OVMax= 5.75D-05

 Initial convergence to 1.0D-05 achieved.  Increase integral accuracy.
 Cycle   7  Pass 1  IDiag  1:
 E= -82.9941418121493     Delta-E=       -0.000015249404 Rises=F Damp=F
 DIIS: error= 3.96D-06 at cycle   1 NSaved=   1.
 NSaved= 1 IEnMin= 1 EnMin= -82.9941418121493     IErMin= 1 ErrMin= 3.96D-06
 ErrMax= 3.96D-06  0.00D+00 EMaxC= 1.00D-01 BMatC= 9.48D-10 BMatP= 9.48D-10
 IDIUse=1 WtCom= 1.00D+00 WtEn= 0.00D+00
 Coeff-Com:  0.100D+01
 Coeff:      0.100D+01
 Gap=     0.290 Goal=   None    Shift=    0.000
 RMSDP=2.69D-06 MaxDP=4.76D-05 DE=-1.52D-05 OVMax= 1.16D-05

 Cycle   8  Pass 1  IDiag  1:
 E= -82.9941418129421     Delta-E=       -0.000000000793 Rises=F Damp=F
 DIIS: error= 2.17D-06 at cycle   2 NSaved=   2.
 NSaved= 2 IEnMin= 2 EnMin= -82.9941418129421     IErMin= 2 ErrMin= 2.17D-06
 ErrMax= 2.17D-06  0.00D+00 EMaxC= 1.00D-01 BMatC= 2.97D-10 BMatP= 9.48D-10
 IDIUse=1 WtCom= 1.00D+00 WtEn= 0.00D+00
 Coeff-Com:  0.320D+00 0.680D+00
 Coeff:      0.320D+00 0.680D+00
 Gap=     0.290 Goal=   None    Shift=    0.000
 RMSDP=4.30D-07 MaxDP=5.51D-06 DE=-7.93D-10 OVMax= 6.21D-06

 Cycle   9  Pass 1  IDiag  1:
 E= -82.9941418131707     Delta-E=       -0.000000000229 Rises=F Damp=F
 DIIS: error= 1.11D-06 at cycle   3 NSaved=   3.
 NSaved= 3 IEnMin= 3 EnMin= -82.9941418131707     IErMin= 3 ErrMin= 1.11D-06
 ErrMax= 1.11D-06  0.00D+00 EMaxC= 1.00D-01 BMatC= 9.07D-11 BMatP= 2.97D-10
 IDIUse=1 WtCom= 1.00D+00 WtEn= 0.00D+00
 Coeff-Com:  0.457D-01 0.359D+00 0.595D+00
 Coeff:      0.457D-01 0.359D+00 0.595D+00
 Gap=     0.290 Goal=   None    Shift=    0.000
 RMSDP=1.28D-07 MaxDP=2.34D-06 DE=-2.29D-10 OVMax= 2.57D-06

 Cycle  10  Pass 1  IDiag  1:
 E= -82.9941418132464     Delta-E=       -0.000000000076 Rises=F Damp=F
 DIIS: error= 1.45D-07 at cycle   4 NSaved=   4.
 NSaved= 4 IEnMin= 4 EnMin= -82.9941418132464     IErMin= 4 ErrMin= 1.45D-07
 ErrMax= 1.45D-07  0.00D+00 EMaxC= 1.00D-01 BMatC= 1.59D-12 BMatP= 9.07D-11
 IDIUse=1 WtCom= 1.00D+00 WtEn= 0.00D+00
 Coeff-Com: -0.608D-02 0.816D-01 0.184D+00 0.741D+00
 Coeff:     -0.608D-02 0.816D-01 0.184D+00 0.741D+00
 Gap=     0.290 Goal=   None    Shift=    0.000
 RMSDP=2.89D-08 MaxDP=4.34D-07 DE=-7.56D-11 OVMax= 4.90D-07

 Cycle  11  Pass 1  IDiag  1:
 E= -82.9941418132481     Delta-E=       -0.000000000002 Rises=F Damp=F
 DIIS: error= 5.02D-08 at cycle   5 NSaved=   5.
 NSaved= 5 IEnMin= 5 EnMin= -82.9941418132481     IErMin= 5 ErrMin= 5.02D-08
 ErrMax= 5.02D-08  0.00D+00 EMaxC= 1.00D-01 BMatC= 1.10D-13 BMatP= 1.59D-12
 IDIUse=1 WtCom= 1.00D+00 WtEn= 0.00D+00
 Coeff-Com: -0.417D-02 0.186D-01 0.444D-01 0.277D+00 0.664D+00
 Coeff:     -0.417D-02 0.186D-01 0.444D-01 0.277D+00 0.664D+00
 Gap=     0.290 Goal=   None    Shift=    0.000
 RMSDP=7.07D-09 MaxDP=7.22D-08 DE=-1.78D-12 OVMax= 9.79D-08

 SCF Done:  E(RPBE1PBE) =  -82.9941418132     A.U. after   11 cycles
            NFock= 11  Conv=0.71D-08     -V/T= 2.0071
 KE= 8.241247200376D+01 PE=-2.765832853088D+02 EE= 6.884997054471D+01
 Leave Link  502 at Wed Mar 18 13:58:35 2015, MaxMem=    33554432 cpu:         3.0
 (Enter /usr/local/research/Gaussian09/g09-revD.01/g09/l601.exe)
 Copying SCF densities to generalized density rwf, IOpCl= 0 IROHF=0.

 **********************************************************************

            Population analysis using the SCF density.

 **********************************************************************

 Orbital symmetries:
       Occupied  (A1) (A1) (A1) (E) (E) (A1) (A1) (E) (E)
       Virtual   (A1) (E) (E) (A1) (E) (E) (A1) (E) (E) (A1) (A1)
                 (E) (E) (A1) (E) (E) (E) (E) (A1) (E) (E) (A1)
                 (A1) (E) (E) (A2) (A1) (A2) (E) (E) (E) (E) (E)
                 (E) (A1) (E) (E) (A1) (A1) (E) (E) (E) (E) (A1)
                 (A1) (E) (E) (E) (E)
 The electronic state is 1-A1.
 Alpha  occ. eigenvalues --  -14.48288  -6.65594  -0.94862  -0.55392  -0.55392
 Alpha  occ. eigenvalues --   -0.53638  -0.38041  -0.27688  -0.27688
 Alpha virt. eigenvalues --    0.01312   0.08351   0.08351   0.19775   0.22556
 Alpha virt. eigenvalues --    0.22556   0.24138   0.32905   0.32905   0.36997
 Alpha virt. eigenvalues --    0.43264   0.49437   0.49437   0.57450   0.75044
 Alpha virt. eigenvalues --    0.75044   0.80198   0.80198   0.83035   0.99908
 Alpha virt. eigenvalues --    0.99908   1.02047   1.13007   1.31788   1.31788
 Alpha virt. eigenvalues --    1.47958   1.58410   1.63453   1.64504   1.64504
 Alpha virt. eigenvalues --    1.82308   1.82308   1.90780   1.90780   1.98260
 Alpha virt. eigenvalues --    2.02136   2.02136   2.19586   2.31312   2.40725
 Alpha virt. eigenvalues --    2.40725   2.72815   2.72815   2.82400   2.95168
 Alpha virt. eigenvalues --    2.97143   2.97143   3.24122   3.24122
          Condensed to atoms (all electrons):
               1          2          3          4          5          6
     1  H    0.537540  -0.019167  -0.019167   0.008891  -0.004423  -0.004423
     2  H   -0.019167   0.537540  -0.019167  -0.004423   0.008891  -0.004423
     3  H   -0.019167  -0.019167   0.537540  -0.004423  -0.004423   0.008891
     4  H    0.008891  -0.004423  -0.004423   0.685737  -0.017731  -0.017731
     5  H   -0.004423   0.008891  -0.004423  -0.017731   0.685737  -0.017731
     6  H   -0.004423  -0.004423   0.008891  -0.017731  -0.017731   0.685737
     7  N    0.360062   0.360062   0.360062  -0.032430  -0.032430  -0.032430
     8  B   -0.043539  -0.043539  -0.043539   0.427398   0.427398   0.427398
               7          8
     1  H    0.360062  -0.043539
     2  H    0.360062  -0.043539
     3  H    0.360062  -0.043539
     4  H   -0.032430   0.427398
     5  H   -0.032430   0.427398
     6  H   -0.032430   0.427398
     7  N    5.702779   0.360674
     8  B    0.360674   3.858218
 Mulliken charges:
               1
     1  H    0.184228
     2  H    0.184228
     3  H    0.184228
     4  H   -0.045288
     5  H   -0.045288
     6  H   -0.045288
     7  N   -0.046349
     8  B   -0.370469
 Sum of Mulliken charges =   0.00000
 Mulliken charges with hydrogens summed into heavy atoms:
               1
     7  N    0.506334
     8  B   -0.506334
 Atomic Valencies and Mayer Atomic Bond Orders:
               1          2          3          4          5          6
     1  H    0.957926   0.003122   0.003122   0.011673  -0.002214  -0.002214
     2  H    0.003122   0.957926   0.003122  -0.002214   0.011673  -0.002214
     3  H    0.003122   0.003122   0.957926  -0.002214  -0.002214   0.011673
     4  H    0.011673  -0.002214  -0.002214   0.961168  -0.007570  -0.007570
     5  H   -0.002214   0.011673  -0.002214  -0.007570   0.961168  -0.007570
     6  H   -0.002214  -0.002214   0.011673  -0.007570  -0.007570   0.961168
     7  N    0.951935   0.951935   0.951935  -0.008734  -0.008734  -0.008734
     8  B   -0.007498  -0.007498  -0.007498   0.977799   0.977799   0.977799
               7          8
     1  H    0.951935  -0.007498
     2  H    0.951935  -0.007498
     3  H    0.951935  -0.007498
     4  H   -0.008734   0.977799
     5  H   -0.008734   0.977799
     6  H   -0.008734   0.977799
     7  N    3.661860   0.832257
     8  B    0.832257   3.743162
 Lowdin Atomic Charges:
               1
     1  H    0.129352
     2  H    0.129352
     3  H    0.129352
     4  H   -0.046147
     5  H   -0.046147
     6  H   -0.046147
     7  N    0.232761
     8  B   -0.482377
 Sum of Lowdin charges  =   0.00000
 Lowdin atomic charges with hydrogens summed into heavy atoms:
               1
     1  H    0.000000
     2  H    0.000000
     3  H    0.000000
     4  H    0.000000
     5  H    0.000000
     6  H    0.000000
     7  N    0.620817
     8  B   -0.620817
 Sum of Lowdin charges  =   0.00000
 Dipole moment from Lowdin charges (Debye):
    X=     0.0000    Y=     0.0000    Z=     5.4941  Tot=     5.4941
 Electronic spatial extent (au):  <R**2>=            108.1874
 Charge=              0.0000 electrons
 Dipole moment (field-independent basis, Debye):
    X=              0.0000    Y=              0.0000    Z=              5.5662  Tot=              5.5662
 Quadrupole moment (field-independent basis, Debye-Ang):
   XX=            -14.9267   YY=            -14.9267   ZZ=            -16.2098
   XY=              0.0000   XZ=              0.0000   YZ=              0.0000
 Traceless Quadrupole moment (field-independent basis, Debye-Ang):
   XX=              0.4277   YY=              0.4277   ZZ=             -0.8554
   XY=              0.0000   XZ=              0.0000   YZ=              0.0000
 Octapole moment (field-independent basis, Debye-Ang**2):
  XXX=              0.0000  YYY=              1.6016  ZZZ=             15.8892  XYY=              0.0000
  XXY=             -1.6016  XXZ=              7.4803  XZZ=              0.0000  YZZ=              0.0000
  YYZ=              7.4803  XYZ=              0.0000
 Hexadecapole moment (field-independent basis, Debye-Ang**3):
 XXXX=            -30.6287 YYYY=            -30.6287 ZZZZ=            -96.6337 XXXY=              0.0000
 XXXZ=              0.0000 YYYX=              0.0000 YYYZ=              1.2052 ZZZX=              0.0000
 ZZZY=              0.0000 XXYY=            -10.2096 XXZZ=            -20.7617 YYZZ=            -20.7617
 XXYZ=             -1.2052 YYXZ=              0.0000 ZZXY=              0.0000
 N-N= 4.232670094713D+01 E-N=-2.765832859211D+02  KE= 8.241247200376D+01
 Symmetry A'   KE= 7.825655960017D+01
 Symmetry A"   KE= 4.155912403591D+00
 There are a total of       63056 grid points.
 ElSum from          density=       17.9999873785
 ElSum from atomic densities=       17.9999651071
 Hirshfeld populations at iteration   1 (CA, CB, DipXYZ):
               1          2          3          4          5
     1  H    0.410907   0.410907   0.000000   0.197310   0.065932
     2  H    0.410907   0.410907   0.170872  -0.098658   0.065930
     3  H    0.410907   0.410907  -0.170872  -0.098658   0.065930
     4  H    0.563442   0.563442   0.000000  -0.126984  -0.052602
     5  H    0.563442   0.563442  -0.109970   0.063493  -0.052599
     6  H    0.563442   0.563442   0.109970   0.063493  -0.052599
     7  N    3.540740   3.540740   0.000000   0.000003   0.123593
     8  B    2.536207   2.536207   0.000000  -0.000003   0.090954
       Tot   8.999994   8.999994   0.000000  -0.000004   0.254537

 Dip from Atomic Chgs              0.000000   0.000000   1.935381
         Total Dipole              0.000000  -0.000004   2.189919

 Hirshfeld charges, spin densities, dipoles, and CM5 charges using IRadAn=      4:
              Q-H        S-H        Dx         Dy         Dz        Q-CM5   
     1  H    0.178187   0.000000   0.000000   0.197310   0.065932   0.327007
     2  H    0.178187   0.000000   0.170872  -0.098658   0.065930   0.327007
     3  H    0.178187   0.000000  -0.170872  -0.098658   0.065930   0.327007
     4  H   -0.126885   0.000000   0.000000  -0.126984  -0.052602  -0.251585
     5  H   -0.126885   0.000000  -0.109970   0.063493  -0.052599  -0.251584
     6  H   -0.126885   0.000000   0.109970   0.063493  -0.052599  -0.251584
     7  N   -0.081479   0.000000   0.000000   0.000003   0.123593  -0.593457
     8  B   -0.072414   0.000000   0.000000  -0.000003   0.090954   0.367200
       Tot   0.000013   0.000000   0.000000  -0.000004   0.254537   0.000013
 Hirshfeld charges with hydrogens summed into heavy atoms:
              Q-H       Q-CM5   
     7  N    0.453081   0.387565
     8  B   -0.453068  -0.387553
 
 EQQ= 0.000000000000E+00 EQD= 0.000000000000E+00 EDD= 0.301972062520E-04
 EQQ+QD+DD= 0.301972062520E-04
 
 No NMR shielding tensors so no spin-rotation constants.
 Leave Link  601 at Wed Mar 18 13:58:36 2015, MaxMem=    33554432 cpu:         0.8
 (Enter /usr/local/research/Gaussian09/g09-revD.01/g09/l701.exe)
 Compute integral first derivatives.
 ... and contract with generalized density number  0.
 DipInt: DoE/N= T T RetVal/Mat= T F Init=T NMatP=  1 IDeriv=0 Min/MaxMlt=  1  1
 Entering OneElI...
 Multipole integrals L=1 to 1 MinM= 0 MaxM= 0.
 Requested accuracy = 0.1000D-12
 PrsmSu:  NPrtUS=   1 ThrOK=F IAlg=1 NPAlg=1 LenDen=           0.
 Prism:   IPart=     0 DynPar=F LinDyn=F Incr=           4.
 PRISM was handed    33518543 working-precision words and   465 shell-pairs
 IPart=  0 NShTot=         465 NBatch=          27 AvBLen=        17.2
 PrSmSu:  NxtVal=              5.
 Entering OneElI...
 Calculate overlap and kinetic energy integrals
    NBasis =  60  MinDer = 1  MaxDer = 1
 Requested accuracy = 0.1000D-12
 PrsmSu:  NPrtUS=   1 ThrOK=F IAlg=1 NPAlg=1 LenDen=           0.
 Prism:   IPart=     0 DynPar=F LinDyn=F Incr=           4.
 PRISM was handed    33513856 working-precision words and   465 shell-pairs
 IPart=  0 NShTot=         465 NBatch=          29 AvBLen=        16.0
 PrSmSu:  NxtVal=              5.
 Entering OneElI...
 Calculate potential energy integrals
    NBasis =  60  MinDer = 1  MaxDer = 1
 Requested accuracy = 0.1000D-12
 PrsmSu:  NPrtUS=   1 ThrOK=F IAlg=1 NPAlg=1 LenDen=           0.
 Prism:   IPart=     0 DynPar=F LinDyn=F Incr=          37.
 PRISM was handed    33518247 working-precision words and   465 shell-pairs
 IPart=  0 NShTot=        3720 NBatch=         465 AvBLen=         8.0
 PrSmSu:  NxtVal=             38.
   6 Symmetry operations used in ECPInt.
 ECPInt:  NShTT=     465 NPrTT=    1529 LenC2=     466 LenP2D=    1450.
 LDataN:  DoStor=F MaxTD1= 5 Len=  102
 LDataN:  DoStor=T MaxTD1= 5 Len=  102
 ECPSu:  NPrtUS=   1 ThrOK=F
 FXYZ after ECPSu
 I=    0 X=   0.000000000000D+00 Y=   0.000000000000D+00 Z=   0.000000000000D+00
 I=    1 X=   0.000000000000D+00 Y=   0.000000000000D+00 Z=   0.000000000000D+00
 I=    2 X=   0.000000000000D+00 Y=   0.000000000000D+00 Z=   0.000000000000D+00
 I=    3 X=   0.000000000000D+00 Y=   0.000000000000D+00 Z=   0.000000000000D+00
 I=    4 X=   0.000000000000D+00 Y=   0.000000000000D+00 Z=   0.000000000000D+00
 I=    5 X=   0.000000000000D+00 Y=   0.000000000000D+00 Z=   0.000000000000D+00
 I=    6 X=   0.000000000000D+00 Y=   0.000000000000D+00 Z=   0.000000000000D+00
 I=    7 X=   0.000000000000D+00 Y=   0.000000000000D+00 Z=   0.000000000000D+00
 I=    8 X=   0.000000000000D+00 Y=   0.000000000000D+00 Z=   0.000000000000D+00
 l701 out
 I=    0 X=   0.000000000000D+00 Y=   0.000000000000D+00 Z=   2.189908083630D+00
 I=    1 X=   0.000000000000D+00 Y=   3.471338769862D+00 Z=   1.175535429891D+00
 I=    2 X=   3.006267559842D+00 Y=  -1.735669384931D+00 Z=   1.175535429891D+00
 I=    3 X=  -3.006267559842D+00 Y=  -1.735669384931D+00 Z=   1.175535429891D+00
 I=    4 X=   0.000000000000D+00 Y=  -1.727351798358D+00 Z=  -9.970008072180D-01
 I=    5 X=  -1.495930538651D+00 Y=   8.636758991792D-01 Z=  -9.970008072181D-01
 I=    6 X=   1.495930538651D+00 Y=   8.636758991792D-01 Z=  -9.970008072181D-01
 I=    7 X=   0.000000000000D+00 Y=   0.000000000000D+00 Z=   2.705348330219D+00
 I=    8 X=   0.000000000000D+00 Y=   0.000000000000D+00 Z=  -3.240952198237D+00
 Leave Link  701 at Wed Mar 18 13:58:36 2015, MaxMem=    33554432 cpu:         0.2
 (Enter /usr/local/research/Gaussian09/g09-revD.01/g09/l702.exe)
 L702 exits ... SP integral derivatives will be done elsewhere.
 Leave Link  702 at Wed Mar 18 13:58:36 2015, MaxMem=    33554432 cpu:         0.0
 (Enter /usr/local/research/Gaussian09/g09-revD.01/g09/l703.exe)
 Compute integral first derivatives, UseDBF=F ICtDFT=           0.
 Integral derivatives from FoFJK, PRISM(SPDF).
 ICntrl=      2127.
 Calling FoFJK, ICntrl=      2127 FMM=F ISym2X=1 I1Cent= 0 IOpClX= 0 NMat=1 NMatS=1 NMatT=0.
 FoFJK:  IHMeth= 1 ICntrl=    2127 DoSepK=F KAlg= 0 I1Cent=   0 FoldK=F
 IRaf=         0 NMat=   1 IRICut=       1 DoRegI=T DoRafI=F ISym2E= 1.
 FoFCou: FMM=F IPFlag=           0 FMFlag=      100000 FMFlg1=         800
         NFxFlg=           0 DoJE=F BraDBF=F KetDBF=F FulRan=T
         wScrn=  0.000000 ICntrl=    2127 IOpCl=  0 I1Cent=           0 NGrid=           0
         NMat0=    1 NMatS0=      1 NMatT0=    0 NMatD0=    1 NMtDS0=    0 NMtDT0=    0
 Petite list used in FoFCou.
 FoFCou:  KetSym=F NOpSet=  6 NOpAb=2 NOp=  6.
 FoFCou:  CnvScl= 1.00D+00 Thresh= 1.00D-10 IAcrcy=      10.
 PrismS was handed    33515352 working-precision words and   465 shell-pairs
 FoFCou: LinMIO=F DoNuc=F BraDBF=F KetDBF=F HaveP=T PDBF=F HaveZ=T HaveW=F
         NIJTC =       6 NIJTAt=       0 NIJTCD=       0 NIJTT =       6
         IJTBeg=       1 IJTEnd=       6 KLTBeg=       1 KLTEnd=       6
         IPTBeg=       1 IPTEnd=       6 IPTBCv=       1 IPTECv=       6
         IZTBeg=       1 IZTEnd=       6 IZTBCv=       1 IZTECv=       6
         IWTBeg=       7 IWTEnd=       6 IWTBCv=       7 IWTECv=       6
         INTBeg=       1 INTEnd=       0 IFTBCv=       1 IFTECv=       6
 NCel replicated for PrismC:     1
 CoulSu:  IncDef=  1024 NBBP=         108345 NTPThr=   100 NPartT=    1 Incr=        1024 LDynOK=F.
 CoulSu:  NPrtUS=   1 ThrOK=F IAlg=1 NPAlg=1 LenDen=           0 LWGrdD=           0 DoCopy=F.
 Enter PrismC: JobTyp=21 DoJE=F Cont=F.
 PrismC:  IPart=     0 DynPar=F LinDyn=F Incr=        1024 UseFst=F UseS4=T IGathr=2.
 PrismC was handed    33514848 working-precision words and   465 shell-pairs
 IPart=  0 NShTot=       27002 NShNF=       27002 NShFF=           0 NBatch=         795 AvBLen=        34.0
 CoulSu:  NxtVal=           1025.
 ReadGW:  IGet=0 IStart=           1 Next=           1 LGW=           0.
 Remaining memory in FofDFT       32.00 Mw
 CkSvGd:  ISavGI=        -1 IRadAn=       4 IRASav=       0 ISavGd=        -1.
 CalDSu:  NPrtUS=   1 ThrOK=F IAlg=1 NPAlg=1 DoDPD=F LenP=        1830 LenD1P=             0.
 IPart=  0 IRanGd=          0 ScrnBf=T ScrnGd=T RCrit=4.00D+00 DoMicB=T.
 IPart=  0        21965 of        24255 points in      64 batches and      168 microbatches, Max-NSigAt=       8 Max-NSgAt2=       8
 Forces at end of L703
 I=    0 X=   0.000000000000D+00 Y=   0.000000000000D+00 Z=   2.189908083630D+00
 I=    1 X=   0.000000000000D+00 Y=   3.690722660436D-02 Z=   6.351369386540D-03
 I=    2 X=   3.196259582260D-02 Y=  -1.845361330218D-02 Z=   6.351369386544D-03
 I=    3 X=  -3.196259582261D-02 Y=  -1.845361330217D-02 Z=   6.351369386545D-03
 I=    4 X=   0.000000000000D+00 Y=   9.186517372343D-02 Z=   2.639528903215D-02
 I=    5 X=   7.955757416755D-02 Y=  -4.593258686171D-02 Z=   2.639528903214D-02
 I=    6 X=  -7.955757416755D-02 Y=  -4.593258686171D-02 Z=   2.639528903214D-02
 I=    7 X=   0.000000000000D+00 Y=   0.000000000000D+00 Z=  -5.048223188416D-02
 I=    8 X=   0.000000000000D+00 Y=   0.000000000000D+00 Z=  -4.775774337192D-02
 Leave Link  703 at Wed Mar 18 13:58:37 2015, MaxMem=    33554432 cpu:         1.1
 (Enter /usr/local/research/Gaussian09/g09-revD.01/g09/l716.exe)
 FrcOut:
 IF    =   309 IFX   =   337 IFXYZ =   361
 IFFX  =   385 IFFFX =   385 IFLen =    28
 IFFLen=     0 IFFFLn=     0 IEDerv=   385
 LEDerv=  1205 IFroze=  1872 ICStrt=  8813
 Dipole        =-6.95895164D-16 1.24032093D-16 2.18990808D+00
 Quadrupole    = 3.17979256D-01 3.17979256D-01-6.35958512D-01
                 4.36283219D-16-7.34093392D-16-4.33413015D-15
 Forces in standard orientation:
 -------------------------------------------------------------------
 Center     Atomic                   Forces (Hartrees/Bohr)
 Number     Number              X              Y              Z
 -------------------------------------------------------------------
      1        1           0.000000000    0.036907227    0.006351369
      2        1           0.031962596   -0.018453613    0.006351369
      3        1          -0.031962596   -0.018453613    0.006351369
      4        1           0.000000000    0.091865174    0.026395289
      5        1           0.079557574   -0.045932587    0.026395289
      6        1          -0.079557574   -0.045932587    0.026395289
      7        7           0.000000000    0.000000000   -0.050482232
      8        5           0.000000000    0.000000000   -0.047757743
 -------------------------------------------------------------------
 ***** Axes restored to original set *****
 Rotating derivatives, DoTrsp=F IDiff=-1 LEDeriv=   1204 LFDPrp=       0 LDFDPr=       0.
 -------------------------------------------------------------------
 Center     Atomic                   Forces (Hartrees/Bohr)
 Number     Number              X              Y              Z
 -------------------------------------------------------------------
      1        1          -0.006350913    0.036907305   -0.000000003
      2        1          -0.006351599   -0.018453537   -0.031962594
      3        1          -0.006351596   -0.018453532    0.031962598
      4        1          -0.026394154    0.091865500   -0.000000006
      5        1          -0.026395860   -0.045932267   -0.079557569
      6        1          -0.026395853   -0.045932254    0.079557579
      7        7           0.050482232   -0.000000624   -0.000000002
      8        5           0.047757743   -0.000000590   -0.000000002
 -------------------------------------------------------------------
 Cartesian Forces:  Max     0.091865500 RMS     0.038968188
 Final forces over variables, Energy=-8.29941418D+01:
  0.00000000D+00 0.00000000D+00 0.00000000D+00 0.00000000D+00
  0.00000000D+00 0.00000000D+00 0.00000000D+00 0.00000000D+00
  0.00000000D+00 0.00000000D+00 0.00000000D+00 0.00000000D+00
  0.00000000D+00 0.00000000D+00 0.00000000D+00 0.00000000D+00
  0.00000000D+00 0.00000000D+00 0.00000000D+00 0.00000000D+00
  0.00000000D+00 0.00000000D+00 0.00000000D+00 0.00000000D+00
  0.00000000D+00 0.00000000D+00 0.00000000D+00 0.00000000D+00
 Leave Link  716 at Wed Mar 18 13:58:37 2015, MaxMem=    33554432 cpu:         0.1
 (Enter /usr/local/research/Gaussian09/g09-revD.01/g09/l103.exe)

 GradGradGradGradGradGradGradGradGradGradGradGradGradGradGradGradGradGrad
 Berny optimization.
 FormGI is forming the generalized inverse of G from B-inverse, IUseBI=4.
 Internal  Forces:  Max     0.095409748 RMS     0.034242266
 Search for a local minimum.
 Step number   1 out of a maximum of   38
 All quantities printed in internal units (Hartrees-Bohrs-Radians)
 RMS Force = .34242D-01 SwitMx=.10000D-02 MixMth= 1
 Mixed Optimization -- RFO/linear search
 Second derivative matrix not updated -- first step.
 ITU=  0
     Eigenvalues ---    0.00369   0.05806   0.05806   0.05806   0.05806
     Eigenvalues ---    0.16000   0.16000   0.16000   0.16000   0.16000
     Eigenvalues ---    0.16000   0.28519   0.37230   0.37230   0.37230
     Eigenvalues ---    0.37230   0.37230   0.37230
 RFO step:  Lambda=-7.48577873D-02 EMin= 3.69149394D-03
 Linear search not attempted -- first point.
 Maximum step size (   0.300) exceeded in Quadratic search.
    -- Step size scaled by   0.722
 Iteration  1 RMS(Cart)=  0.06120978 RMS(Int)=  0.00077849
 Iteration  2 RMS(Cart)=  0.00111172 RMS(Int)=  0.00012172
 Iteration  3 RMS(Cart)=  0.00000082 RMS(Int)=  0.00012171
 ITry= 1 IFail=0 DXMaxC= 1.58D-01 DCOld= 1.00D+10 DXMaxT= 3.00D-01 DXLimC= 3.00D+00 Rises=F
 ClnCor:  largest displacement from symmetrization is 5.75D-09 for atom     2.
 Variable       Old X    -DE/DX   Delta X   Delta X   Delta X     New X
                                 (Linear)    (Quad)   (Total)
    R1        2.02201  -0.03691   0.00000  -0.05959  -0.05959   1.96242
    R2        2.02201  -0.03691   0.00000  -0.05959  -0.05959   1.96242
    R3        2.02201  -0.03691   0.00000  -0.05959  -0.05959   1.96242
    R4        2.02201   0.09541   0.00000   0.15402   0.15402   2.17602
    R5        2.02201   0.09541   0.00000   0.15402   0.15402   2.17602
    R6        2.02201   0.09541   0.00000   0.15402   0.15402   2.17602
    R7        2.91018   0.03143   0.00000   0.06301   0.06301   2.97319
    A1        1.91063  -0.00638   0.00000  -0.01962  -0.01981   1.89082
    A2        1.91063  -0.00638   0.00000  -0.01962  -0.01981   1.89082
    A3        1.91063   0.00638   0.00000   0.01962   0.01942   1.93005
    A4        1.91063  -0.00638   0.00000  -0.01962  -0.01981   1.89082
    A5        1.91063   0.00638   0.00000   0.01962   0.01942   1.93005
    A6        1.91063   0.00638   0.00000   0.01962   0.01942   1.93005
    A7        1.91063   0.00580   0.00000   0.01782   0.01765   1.92828
    A8        1.91063   0.00580   0.00000   0.01782   0.01765   1.92828
    A9        1.91063  -0.00580   0.00000  -0.01782  -0.01799   1.89264
   A10        1.91063   0.00580   0.00000   0.01782   0.01765   1.92828
   A11        1.91063  -0.00580   0.00000  -0.01782  -0.01799   1.89264
   A12        1.91063  -0.00580   0.00000  -0.01782  -0.01799   1.89264
    D1        3.14159   0.00000   0.00000   0.00000   0.00000   3.14159
    D2       -1.04720   0.00000   0.00000   0.00000   0.00000  -1.04720
    D3        1.04720   0.00000   0.00000   0.00000   0.00000   1.04720
    D4        1.04720   0.00000   0.00000   0.00000   0.00000   1.04720
    D5        3.14159   0.00000   0.00000   0.00000   0.00000  -3.14159
    D6       -1.04720   0.00000   0.00000   0.00000   0.00000  -1.04720
    D7       -1.04720   0.00000   0.00000   0.00000   0.00000  -1.04720
    D8        1.04720   0.00000   0.00000   0.00000   0.00000   1.04720
    D9        3.14159   0.00000   0.00000   0.00000   0.00000   3.14159
         Item               Value     Threshold  Converged?
 Maximum Force            0.095410     0.000450     NO 
 RMS     Force            0.034242     0.000300     NO 
 Maximum Displacement     0.157927     0.001800     NO 
 RMS     Displacement     0.061013     0.001200     NO 
 Predicted change in Energy=-3.790107D-02
 Lowest energy point so far.  Saving SCF results.
 GradGradGradGradGradGradGradGradGradGradGradGradGradGradGradGradGradGrad

 Leave Link  103 at Wed Mar 18 13:58:37 2015, MaxMem=    33554432 cpu:         0.0
 (Enter /usr/local/research/Gaussian09/g09-revD.01/g09/l202.exe)
                          Input orientation:                          
 ---------------------------------------------------------------------
 Center     Atomic      Atomic             Coordinates (Angstroms)
 Number     Number       Type             X           Y           Z
 ---------------------------------------------------------------------
      1          1           0        0.332680   -0.642717   -0.071398
      2          1           0        0.332698    0.815538    0.770526
      3          1           0        0.332698    0.815538   -0.913322
      4          1           0       -1.969977    1.421858   -0.071398
      5          1           0       -1.969997   -0.216707   -1.017423
      6          1           0       -1.969997   -0.216706    0.874628
      7          7           0       -0.032411    0.329458   -0.071398
      8          5           0       -1.605753    0.329477   -0.071398
 ---------------------------------------------------------------------
                    Distance matrix (angstroms):
                    1          2          3          4          5
     1  H    0.000000
     2  H    1.683848   0.000000
     3  H    1.683848   1.683848   0.000000
     4  H    3.092685   2.525623   2.525623   0.000000
     5  H    2.525623   3.092685   2.525623   1.892052   0.000000
     6  H    2.525623   2.525623   3.092685   1.892052   1.892052
     7  N    1.038467   1.038467   1.038467   2.224298   2.224298
     8  B    2.168567   2.168567   2.168567   1.151501   1.151501
                    6          7          8
     6  H    0.000000
     7  N    2.224298   0.000000
     8  B    1.151501   1.573342   0.000000
 Stoichiometry    BH6N
 Framework group  C3V[C3(BN),3SGV(H2)]
 Deg. of freedom     5
 Full point group                 C3V     NOp   6
 RotChk:  IX=0 Diff= 1.98D-15
 Largest Abelian subgroup         CS      NOp   2
 Largest concise Abelian subgroup CS      NOp   2
                         Standard orientation:                         
 ---------------------------------------------------------------------
 Center     Atomic      Atomic             Coordinates (Angstroms)
 Number     Number       Type             X           Y           Z
 ---------------------------------------------------------------------
      1          1           0        0.000000    0.972170    1.064222
      2          1           0        0.841924   -0.486085    1.064222
      3          1           0       -0.841924   -0.486085    1.064222
      4          1           0        0.000000   -1.092377   -1.238460
      5          1           0       -0.946026    0.546188   -1.238460
      6          1           0        0.946026    0.546188   -1.238460
      7          7           0        0.000000    0.000000    0.699119
      8          5           0        0.000000    0.000000   -0.874223
 ---------------------------------------------------------------------
 Rotational constants (GHZ):     78.1666653     19.0361199     19.0361199
 Leave Link  202 at Wed Mar 18 13:58:37 2015, MaxMem=    33554432 cpu:         0.0
 (Enter /usr/local/research/Gaussian09/g09-revD.01/g09/l301.exe)
 Standard basis: def2SVP (5D, 7F)
 Ernie: Thresh=  0.10000D-02 Tol=  0.10000D-05 Strict=F.
 There are    40 symmetry adapted cartesian basis functions of A'  symmetry.
 There are    20 symmetry adapted cartesian basis functions of A"  symmetry.
 There are    38 symmetry adapted basis functions of A'  symmetry.
 There are    20 symmetry adapted basis functions of A"  symmetry.
    58 basis functions,    92 primitive gaussians,    60 cartesian basis functions
     9 alpha electrons        9 beta electrons
       nuclear repulsion energy        41.5749691609 Hartrees.
 IExCor= 1009 DFT=T Ex+Corr=PBE1PBE ExCW=0 ScaHFX=  0.250000
 ScaDFX=  0.750000  0.750000  1.000000  1.000000 ScalE2=  1.000000  1.000000
 IRadAn=      0 IRanWt=     -1 IRanGd=            0 ICorTp=0 IEmpDi=  4
 NAtoms=    8 NActive=    8 NUniq=    4 SFac= 4.00D+00 NAtFMM=   60 NAOKFM=F Big=F
 Integral buffers will be    131072 words long.
 Raffenetti 2 integral format.
 Two-electron integral symmetry is turned on.
 Leave Link  301 at Wed Mar 18 13:58:37 2015, MaxMem=    33554432 cpu:         0.1
 (Enter /usr/local/research/Gaussian09/g09-revD.01/g09/l302.exe)
 NPDir=0 NMtPBC=     1 NCelOv=     1 NCel=       1 NClECP=     1 NCelD=      1
         NCelK=      1 NCelE2=     1 NClLst=     1 CellRange=     0.0.
 One-electron integrals computed using PRISM.
 One-electron integral symmetry used in STVInt
   6 Symmetry operations used in ECPInt.
 ECPInt:  NShTT=     465 NPrTT=    1529 LenC2=     466 LenP2D=    1447.
 LDataN:  DoStor=T MaxTD1= 4 Len=   56
 NBasis=    58 RedAO= T EigKep=  5.02D-03  NBF=    38    20
 NBsUse=    58 1.00D-06 EigRej= -1.00D+00 NBFU=    38    20
 Precomputing XC quadrature grid using
 IXCGrd= 4 IRadAn=           0 IRanWt=          -1 IRanGd=           0 AccXCQ= 0.00D+00.
 Generated NRdTot=       0 NPtTot=           0 NUsed=           0 NTot=          32
 NSgBfM=    60    60    60    60    60 MxSgAt=     8 MxSgA2=     8.
 Leave Link  302 at Wed Mar 18 13:58:38 2015, MaxMem=    33554432 cpu:         0.3
 (Enter /usr/local/research/Gaussian09/g09-revD.01/g09/l303.exe)
 DipDrv:  MaxL=1.
 Leave Link  303 at Wed Mar 18 13:58:38 2015, MaxMem=    33554432 cpu:         0.0
 (Enter /usr/local/research/Gaussian09/g09-revD.01/g09/l401.exe)
 Initial guess from the checkpoint file:  "g09-h3b-nh3.chk"
 B after Tr=     0.000000    0.000000    0.000000
         Rot=    1.000000    0.000000    0.000000    0.000000 Ang=   0.00 deg.
 Guess basis will be translated and rotated to current coordinates.
 JPrj=2 DoOrth=T DoCkMO=T.
 Initial guess orbital symmetries:
       Occupied  (A1) (A1) (A1) (E) (E) (A1) (A1) (E) (E)
       Virtual   (?A) (?A) (?A) (?A) (?A) (?A) (?A) (?A) (?A) (?A)
                 (?A) (?A) (?A) (?A) (?A) (?A) (?A) (?A) (?A) (?A)
                 (?A) (?A) (?A) (?A) (?A) (?A) (?A) (?A) (?A) (?A)
                 (?A) (?A) (?A) (?A) (?A) (?A) (?A) (?A) (?A) (?A)
                 (?A) (?A) (?A) (?A) (?A) (?A) (?A) (?A) (?A)
 The electronic state of the initial guess is 1-A1.
 Generating alternative initial guess.
 ExpMin= 8.36D-02 ExpMax= 1.71D+03 ExpMxC= 2.58D+02 IAcc=2 IRadAn=         4 AccDes= 0.00D+00
 Harris functional with IExCor= 1009 and IRadAn=       4 diagonalized for initial guess.
 HarFok:  IExCor= 1009 AccDes= 0.00D+00 IRadAn=         4 IDoV= 1 UseB2=F ITyADJ=14
 ICtDFT=  3500011 ScaDFX=  1.000000  1.000000  1.000000  1.000000
 FoFCou: FMM=F IPFlag=           0 FMFlag=      100000 FMFlg1=           0
         NFxFlg=           0 DoJE=T BraDBF=F KetDBF=T FulRan=T
         wScrn=  0.000000 ICntrl=     500 IOpCl=  0 I1Cent=   200000004 NGrid=           0
         NMat0=    1 NMatS0=      1 NMatT0=    0 NMatD0=    1 NMtDS0=    0 NMtDT0=    0
 Petite list used in FoFCou.
 Harris En= -83.1338368737863    
 Leave Link  401 at Wed Mar 18 13:58:39 2015, MaxMem=    33554432 cpu:         0.7
 (Enter /usr/local/research/Gaussian09/g09-revD.01/g09/l502.exe)
 Closed shell SCF:
 Using DIIS extrapolation, IDIIS=  1040.
 Integral symmetry usage will be decided dynamically.
 Keep R1 ints in memory in symmetry-blocked form, NReq=2380612.
 IVT=       30386 IEndB=       30386 NGot=    33554432 MDV=    32778135
 LenX=    32778135 LenY=    32774094
 Requested convergence on RMS density matrix=1.00D-08 within 128 cycles.
 Requested convergence on MAX density matrix=1.00D-06.
 Requested convergence on             energy=1.00D-06.
 No special actions if energy rises.
 FoFCou: FMM=F IPFlag=           0 FMFlag=           0 FMFlg1=           0
         NFxFlg=           0 DoJE=F BraDBF=F KetDBF=F FulRan=T
         wScrn=  0.000000 ICntrl=     600 IOpCl=  0 I1Cent=           0 NGrid=           0
         NMat0=    1 NMatS0=   1711 NMatT0=    0 NMatD0=    1 NMtDS0=    0 NMtDT0=    0
 Petite list used in FoFCou.
 Integral accuracy reduced to 1.0D-05 until final iterations.

 Cycle   1  Pass 0  IDiag  1:
 E= -83.0276395000882    
 DIIS: error= 8.17D-03 at cycle   1 NSaved=   1.
 NSaved= 1 IEnMin= 1 EnMin= -83.0276395000882     IErMin= 1 ErrMin= 8.17D-03
 ErrMax= 8.17D-03  0.00D+00 EMaxC= 1.00D-01 BMatC= 3.35D-03 BMatP= 3.35D-03
 IDIUse=3 WtCom= 9.18D-01 WtEn= 8.17D-02
 Coeff-Com:  0.100D+01
 Coeff-En:   0.100D+01
 Coeff:      0.100D+01
 Gap=     0.537 Goal=   None    Shift=    0.000
 GapD=    0.537 DampG=2.000 DampE=1.000 DampFc=2.0000 IDamp=-1.
 RMSDP=1.53D-03 MaxDP=1.76D-02              OVMax= 2.41D-02

 Cycle   2  Pass 0  IDiag  1:
 E= -83.0306274861815     Delta-E=       -0.002987986093 Rises=F Damp=F
 DIIS: error= 2.81D-03 at cycle   2 NSaved=   2.
 NSaved= 2 IEnMin= 2 EnMin= -83.0306274861815     IErMin= 2 ErrMin= 2.81D-03
 ErrMax= 2.81D-03  0.00D+00 EMaxC= 1.00D-01 BMatC= 5.07D-04 BMatP= 3.35D-03
 IDIUse=3 WtCom= 9.72D-01 WtEn= 2.81D-02
 Coeff-Com:  0.198D+00 0.802D+00
 Coeff-En:   0.000D+00 0.100D+01
 Coeff:      0.192D+00 0.808D+00
 Gap=     0.298 Goal=   None    Shift=    0.000
 RMSDP=5.37D-04 MaxDP=1.06D-02 DE=-2.99D-03 OVMax= 1.11D-02

 Cycle   3  Pass 0  IDiag  1:
 E= -83.0310202690650     Delta-E=       -0.000392782883 Rises=F Damp=F
 DIIS: error= 1.76D-03 at cycle   3 NSaved=   3.
 NSaved= 3 IEnMin= 3 EnMin= -83.0310202690650     IErMin= 3 ErrMin= 1.76D-03
 ErrMax= 1.76D-03  0.00D+00 EMaxC= 1.00D-01 BMatC= 2.03D-04 BMatP= 5.07D-04
 IDIUse=3 WtCom= 9.82D-01 WtEn= 1.76D-02
 Coeff-Com:  0.367D-02 0.385D+00 0.611D+00
 Coeff-En:   0.000D+00 0.212D+00 0.788D+00
 Coeff:      0.361D-02 0.382D+00 0.615D+00
 Gap=     0.295 Goal=   None    Shift=    0.000
 RMSDP=1.91D-04 MaxDP=3.68D-03 DE=-3.93D-04 OVMax= 3.86D-03

 Cycle   4  Pass 0  IDiag  1:
 E= -83.0312081143086     Delta-E=       -0.000187845244 Rises=F Damp=F
 DIIS: error= 3.49D-04 at cycle   4 NSaved=   4.
 NSaved= 4 IEnMin= 4 EnMin= -83.0312081143086     IErMin= 4 ErrMin= 3.49D-04
 ErrMax= 3.49D-04  0.00D+00 EMaxC= 1.00D-01 BMatC= 8.20D-06 BMatP= 2.03D-04
 IDIUse=3 WtCom= 9.97D-01 WtEn= 3.49D-03
 Coeff-Com: -0.458D-02 0.167D+00 0.305D+00 0.532D+00
 Coeff-En:   0.000D+00 0.000D+00 0.000D+00 0.100D+01
 Coeff:     -0.457D-02 0.166D+00 0.304D+00 0.534D+00
 Gap=     0.294 Goal=   None    Shift=    0.000
 RMSDP=4.73D-05 MaxDP=6.19D-04 DE=-1.88D-04 OVMax= 7.36D-04

 Cycle   5  Pass 0  IDiag  1:
 E= -83.0312159970449     Delta-E=       -0.000007882736 Rises=F Damp=F
 DIIS: error= 2.89D-05 at cycle   5 NSaved=   5.
 NSaved= 5 IEnMin= 5 EnMin= -83.0312159970449     IErMin= 5 ErrMin= 2.89D-05
 ErrMax= 2.89D-05  0.00D+00 EMaxC= 1.00D-01 BMatC= 7.88D-08 BMatP= 8.20D-06
 IDIUse=1 WtCom= 1.00D+00 WtEn= 0.00D+00
 Coeff-Com: -0.161D-02 0.140D-01 0.302D-01 0.117D+00 0.841D+00
 Coeff:     -0.161D-02 0.140D-01 0.302D-01 0.117D+00 0.841D+00
 Gap=     0.294 Goal=   None    Shift=    0.000
 RMSDP=5.79D-06 MaxDP=1.09D-04 DE=-7.88D-06 OVMax= 1.05D-04

 Initial convergence to 1.0D-05 achieved.  Increase integral accuracy.
 Cycle   6  Pass 1  IDiag  1:
 E= -83.0312293729564     Delta-E=       -0.000013375911 Rises=F Damp=F
 DIIS: error= 6.67D-06 at cycle   1 NSaved=   1.
 NSaved= 1 IEnMin= 1 EnMin= -83.0312293729564     IErMin= 1 ErrMin= 6.67D-06
 ErrMax= 6.67D-06  0.00D+00 EMaxC= 1.00D-01 BMatC= 1.83D-09 BMatP= 1.83D-09
 IDIUse=1 WtCom= 1.00D+00 WtEn= 0.00D+00
 Coeff-Com:  0.100D+01
 Coeff:      0.100D+01
 Gap=     0.294 Goal=   None    Shift=    0.000
 RMSDP=5.79D-06 MaxDP=1.09D-04 DE=-1.34D-05 OVMax= 2.61D-05

 Cycle   7  Pass 1  IDiag  1:
 E= -83.0312293745563     Delta-E=       -0.000000001600 Rises=F Damp=F
 DIIS: error= 3.36D-06 at cycle   2 NSaved=   2.
 NSaved= 2 IEnMin= 2 EnMin= -83.0312293745563     IErMin= 2 ErrMin= 3.36D-06
 ErrMax= 3.36D-06  0.00D+00 EMaxC= 1.00D-01 BMatC= 8.62D-10 BMatP= 1.83D-09
 IDIUse=1 WtCom= 1.00D+00 WtEn= 0.00D+00
 Coeff-Com:  0.384D+00 0.616D+00
 Coeff:      0.384D+00 0.616D+00
 Gap=     0.294 Goal=   None    Shift=    0.000
 RMSDP=5.28D-07 MaxDP=8.98D-06 DE=-1.60D-09 OVMax= 1.09D-05

 Cycle   8  Pass 1  IDiag  1:
 E= -83.0312293752617     Delta-E=       -0.000000000705 Rises=F Damp=F
 DIIS: error= 1.62D-06 at cycle   3 NSaved=   3.
 NSaved= 3 IEnMin= 3 EnMin= -83.0312293752617     IErMin= 3 ErrMin= 1.62D-06
 ErrMax= 1.62D-06  0.00D+00 EMaxC= 1.00D-01 BMatC= 1.51D-10 BMatP= 8.62D-10
 IDIUse=1 WtCom= 1.00D+00 WtEn= 0.00D+00
 Coeff-Com:  0.626D-01 0.301D+00 0.636D+00
 Coeff:      0.626D-01 0.301D+00 0.636D+00
 Gap=     0.294 Goal=   None    Shift=    0.000
 RMSDP=1.58D-07 MaxDP=3.15D-06 DE=-7.05D-10 OVMax= 3.09D-06

 Cycle   9  Pass 1  IDiag  1:
 E= -83.0312293753846     Delta-E=       -0.000000000123 Rises=F Damp=F
 DIIS: error= 1.23D-07 at cycle   4 NSaved=   4.
 NSaved= 4 IEnMin= 4 EnMin= -83.0312293753846     IErMin= 4 ErrMin= 1.23D-07
 ErrMax= 1.23D-07  0.00D+00 EMaxC= 1.00D-01 BMatC= 1.40D-12 BMatP= 1.51D-10
 IDIUse=1 WtCom= 1.00D+00 WtEn= 0.00D+00
 Coeff-Com: -0.121D-01 0.294D-01 0.122D+00 0.861D+00
 Coeff:     -0.121D-01 0.294D-01 0.122D+00 0.861D+00
 Gap=     0.294 Goal=   None    Shift=    0.000
 RMSDP=3.55D-08 MaxDP=4.10D-07 DE=-1.23D-10 OVMax= 4.68D-07

 Cycle  10  Pass 1  IDiag  1:
 E= -83.0312293753865     Delta-E=       -0.000000000002 Rises=F Damp=F
 DIIS: error= 2.10D-08 at cycle   5 NSaved=   5.
 NSaved= 5 IEnMin= 5 EnMin= -83.0312293753865     IErMin= 5 ErrMin= 2.10D-08
 ErrMax= 2.10D-08  0.00D+00 EMaxC= 1.00D-01 BMatC= 1.66D-14 BMatP= 1.40D-12
 IDIUse=1 WtCom= 1.00D+00 WtEn= 0.00D+00
 Coeff-Com: -0.206D-02 0.351D-02 0.103D-01 0.123D+00 0.865D+00
 Coeff:     -0.206D-02 0.351D-02 0.103D-01 0.123D+00 0.865D+00
 Gap=     0.294 Goal=   None    Shift=    0.000
 RMSDP=3.50D-09 MaxDP=5.63D-08 DE=-1.89D-12 OVMax= 7.08D-08

 SCF Done:  E(RPBE1PBE) =  -83.0312293754     A.U. after   10 cycles
            NFock= 10  Conv=0.35D-08     -V/T= 2.0100
 KE= 8.220923339212D+01 PE=-2.748684506189D+02 EE= 6.805301869047D+01
 Leave Link  502 at Wed Mar 18 13:58:42 2015, MaxMem=    33554432 cpu:         2.9
 (Enter /usr/local/research/Gaussian09/g09-revD.01/g09/l701.exe)
 Compute integral first derivatives.
 ... and contract with generalized density number  0.
 DipInt: DoE/N= T T RetVal/Mat= T F Init=T NMatP=  1 IDeriv=0 Min/MaxMlt=  1  1
 Entering OneElI...
 Multipole integrals L=1 to 1 MinM= 0 MaxM= 0.
 Requested accuracy = 0.1000D-12
 PrsmSu:  NPrtUS=   1 ThrOK=F IAlg=1 NPAlg=1 LenDen=           0.
 Prism:   IPart=     0 DynPar=F LinDyn=F Incr=           4.
 PRISM was handed    33518599 working-precision words and   465 shell-pairs
 IPart=  0 NShTot=         465 NBatch=          26 AvBLen=        17.9
 PrSmSu:  NxtVal=              5.
 Entering OneElI...
 Calculate overlap and kinetic energy integrals
    NBasis =  60  MinDer = 1  MaxDer = 1
 Requested accuracy = 0.1000D-12
 PrsmSu:  NPrtUS=   1 ThrOK=F IAlg=1 NPAlg=1 LenDen=           0.
 Prism:   IPart=     0 DynPar=F LinDyn=F Incr=           4.
 PRISM was handed    33513982 working-precision words and   465 shell-pairs
 IPart=  0 NShTot=         465 NBatch=          31 AvBLen=        15.0
 PrSmSu:  NxtVal=              5.
 Entering OneElI...
 Calculate potential energy integrals
    NBasis =  60  MinDer = 1  MaxDer = 1
 Requested accuracy = 0.1000D-12
 PrsmSu:  NPrtUS=   1 ThrOK=F IAlg=1 NPAlg=1 LenDen=           0.
 Prism:   IPart=     0 DynPar=F LinDyn=F Incr=          37.
 PRISM was handed    33518331 working-precision words and   465 shell-pairs
 IPart=  0 NShTot=        3720 NBatch=         465 AvBLen=         8.0
 PrSmSu:  NxtVal=             38.
   6 Symmetry operations used in ECPInt.
 ECPInt:  NShTT=     465 NPrTT=    1529 LenC2=     466 LenP2D=    1447.
 LDataN:  DoStor=F MaxTD1= 5 Len=  102
 LDataN:  DoStor=T MaxTD1= 5 Len=  102
 ECPSu:  NPrtUS=   1 ThrOK=F
 FXYZ after ECPSu
 I=    0 X=   0.000000000000D+00 Y=   0.000000000000D+00 Z=   0.000000000000D+00
 I=    1 X=   0.000000000000D+00 Y=   0.000000000000D+00 Z=   0.000000000000D+00
 I=    2 X=   0.000000000000D+00 Y=   0.000000000000D+00 Z=   0.000000000000D+00
 I=    3 X=   0.000000000000D+00 Y=   0.000000000000D+00 Z=   0.000000000000D+00
 I=    4 X=   0.000000000000D+00 Y=   0.000000000000D+00 Z=   0.000000000000D+00
 I=    5 X=   0.000000000000D+00 Y=   0.000000000000D+00 Z=   0.000000000000D+00
 I=    6 X=   0.000000000000D+00 Y=   0.000000000000D+00 Z=   0.000000000000D+00
 I=    7 X=   0.000000000000D+00 Y=   0.000000000000D+00 Z=   0.000000000000D+00
 I=    8 X=   0.000000000000D+00 Y=   0.000000000000D+00 Z=   0.000000000000D+00
 l701 out
 I=    0 X=   0.000000000000D+00 Y=   0.000000000000D+00 Z=   2.255458518292D+00
 I=    1 X=   0.000000000000D+00 Y=   3.485533553857D+00 Z=   1.315755404312D+00
 I=    2 X=   3.018560603383D+00 Y=  -1.742766776928D+00 Z=   1.315755404312D+00
 I=    3 X=  -3.018560603383D+00 Y=  -1.742766776928D+00 Z=   1.315755404312D+00
 I=    4 X=   0.000000000000D+00 Y=  -1.906314646506D+00 Z=  -9.966887723469D-01
 I=    5 X=  -1.650916911481D+00 Y=   9.531573232530D-01 Z=  -9.966887723469D-01
 I=    6 X=   1.650916911481D+00 Y=   9.531573232530D-01 Z=  -9.966887723469D-01
 I=    7 X=   0.000000000000D+00 Y=   0.000000000000D+00 Z=   2.159513352095D+00
 I=    8 X=   0.000000000000D+00 Y=   0.000000000000D+00 Z=  -3.116713247989D+00
 Leave Link  701 at Wed Mar 18 13:58:42 2015, MaxMem=    33554432 cpu:         0.2
 (Enter /usr/local/research/Gaussian09/g09-revD.01/g09/l702.exe)
 L702 exits ... SP integral derivatives will be done elsewhere.
 Leave Link  702 at Wed Mar 18 13:58:42 2015, MaxMem=    33554432 cpu:         0.0
 (Enter /usr/local/research/Gaussian09/g09-revD.01/g09/l703.exe)
 Compute integral first derivatives, UseDBF=F ICtDFT=           0.
 Integral derivatives from FoFJK, PRISM(SPDF).
 ICntrl=      2127.
 Calling FoFJK, ICntrl=      2127 FMM=F ISym2X=1 I1Cent= 0 IOpClX= 0 NMat=1 NMatS=1 NMatT=0.
 FoFJK:  IHMeth= 1 ICntrl=    2127 DoSepK=F KAlg= 0 I1Cent=   0 FoldK=F
 IRaf=         0 NMat=   1 IRICut=       1 DoRegI=T DoRafI=F ISym2E= 1.
 FoFCou: FMM=F IPFlag=           0 FMFlag=      100000 FMFlg1=         800
         NFxFlg=           0 DoJE=F BraDBF=F KetDBF=F FulRan=T
         wScrn=  0.000000 ICntrl=    2127 IOpCl=  0 I1Cent=           0 NGrid=           0
         NMat0=    1 NMatS0=      1 NMatT0=    0 NMatD0=    1 NMtDS0=    0 NMtDT0=    0
 Petite list used in FoFCou.
 FoFCou:  KetSym=F NOpSet=  6 NOpAb=2 NOp=  6.
 FoFCou:  CnvScl= 1.00D+00 Thresh= 1.00D-10 IAcrcy=      10.
 PrismS was handed    33515478 working-precision words and   465 shell-pairs
 FoFCou: LinMIO=F DoNuc=F BraDBF=F KetDBF=F HaveP=T PDBF=F HaveZ=T HaveW=F
         NIJTC =       6 NIJTAt=       0 NIJTCD=       0 NIJTT =       6
         IJTBeg=       1 IJTEnd=       6 KLTBeg=       1 KLTEnd=       6
         IPTBeg=       1 IPTEnd=       6 IPTBCv=       1 IPTECv=       6
         IZTBeg=       1 IZTEnd=       6 IZTBCv=       1 IZTECv=       6
         IWTBeg=       7 IWTEnd=       6 IWTBCv=       7 IWTECv=       6
         INTBeg=       1 INTEnd=       0 IFTBCv=       1 IFTECv=       6
 NCel replicated for PrismC:     1
 CoulSu:  IncDef=  1024 NBBP=         108345 NTPThr=   100 NPartT=    1 Incr=        1024 LDynOK=F.
 CoulSu:  NPrtUS=   1 ThrOK=F IAlg=1 NPAlg=1 LenDen=           0 LWGrdD=           0 DoCopy=F.
 Enter PrismC: JobTyp=21 DoJE=F Cont=F.
 PrismC:  IPart=     0 DynPar=F LinDyn=F Incr=        1024 UseFst=F UseS4=T IGathr=2.
 PrismC was handed    33514974 working-precision words and   465 shell-pairs
 IPart=  0 NShTot=       26991 NShNF=       26991 NShFF=           0 NBatch=         773 AvBLen=        34.9
 CoulSu:  NxtVal=           1025.
 ReadGW:  IGet=0 IStart=           1 Next=           1 LGW=           0.
 Remaining memory in FofDFT       32.00 Mw
 CkSvGd:  ISavGI=        -1 IRadAn=       4 IRASav=       0 ISavGd=        -1.
 CalDSu:  NPrtUS=   1 ThrOK=F IAlg=1 NPAlg=1 DoDPD=F LenP=        1830 LenD1P=             0.
 IPart=  0 IRanGd=          0 ScrnBf=T ScrnGd=T RCrit=4.00D+00 DoMicB=T.
 IPart=  0        22006 of        24255 points in      64 batches and      169 microbatches, Max-NSigAt=       8 Max-NSgAt2=       8
 Forces at end of L703
 I=    0 X=   0.000000000000D+00 Y=   0.000000000000D+00 Z=   2.255458518292D+00
 I=    1 X=   0.000000000000D+00 Y=   1.466327510220D-02 Z=   2.653498345645D-03
 I=    2 X=   1.269876874119D-02 Y=  -7.331637551100D-03 Z=   2.653498345647D-03
 I=    3 X=  -1.269876874119D-02 Y=  -7.331637551099D-03 Z=   2.653498345650D-03
 I=    4 X=   0.000000000000D+00 Y=   3.654163892662D-02 Z=   7.832216882463D-03
 I=    5 X=   3.164598760638D-02 Y=  -1.827081946331D-02 Z=   7.832216882468D-03
 I=    6 X=  -3.164598760638D-02 Y=  -1.827081946331D-02 Z=   7.832216882467D-03
 I=    7 X=   0.000000000000D+00 Y=   0.000000000000D+00 Z=  -2.515961558859D-02
 I=    8 X=   0.000000000000D+00 Y=   0.000000000000D+00 Z=  -6.297530095773D-03
 Leave Link  703 at Wed Mar 18 13:58:43 2015, MaxMem=    33554432 cpu:         1.1
 (Enter /usr/local/research/Gaussian09/g09-revD.01/g09/l716.exe)
 FrcOut:
 IF    =   309 IFX   =   337 IFXYZ =   361
 IFFX  =   385 IFFFX =   385 IFLen =    28
 IFFLen=     0 IFFFLn=     0 IEDerv=   385
 LEDerv=  1205 IFroze=  1872 ICStrt=  8813
 Dipole        = 1.71024422D-17 2.20838006D-16 2.25545852D+00
 Forces in standard orientation:
 -------------------------------------------------------------------
 Center     Atomic                   Forces (Hartrees/Bohr)
 Number     Number              X              Y              Z
 -------------------------------------------------------------------
      1        1           0.000000000    0.014663275    0.002653498
      2        1           0.012698769   -0.007331638    0.002653498
      3        1          -0.012698769   -0.007331638    0.002653498
      4        1           0.000000000    0.036541639    0.007832217
      5        1           0.031645988   -0.018270819    0.007832217
      6        1          -0.031645988   -0.018270819    0.007832217
      7        7           0.000000000    0.000000000   -0.025159616
      8        5           0.000000000    0.000000000   -0.006297530
 -------------------------------------------------------------------
 ***** Axes restored to original set *****
 Rotating derivatives, DoTrsp=F IDiff=-1 LEDeriv=   1204 LFDPrp=       0 LDFDPr=       0.
 -------------------------------------------------------------------
 Center     Atomic                   Forces (Hartrees/Bohr)
 Number     Number              X              Y              Z
 -------------------------------------------------------------------
      1        1          -0.002653317    0.014663308   -0.000000001
      2        1          -0.002653589   -0.007331606   -0.012698768
      3        1          -0.002653588   -0.007331604    0.012698769
      4        1          -0.007831765    0.036541736   -0.000000003
      5        1          -0.007832444   -0.018270725   -0.031645986
      6        1          -0.007832441   -0.018270720    0.031645989
      7        7           0.025159616   -0.000000311   -0.000000001
      8        5           0.006297530   -0.000000078    0.000000000
 -------------------------------------------------------------------
 Cartesian Forces:  Max     0.036541736 RMS     0.015177736
 Final forces over variables, Energy=-8.30312294D+01:
 -3.69135885D-02-3.69135885D-02-3.69135885D-02 9.54097476D-02
  9.54097476D-02 9.54097476D-02 3.14281237D-02-6.38376828D-03
 -6.38376828D-03 6.38376498D-03-6.38376828D-03 6.38376498D-03
  6.38376498D-03 5.79909688D-03 5.79909688D-03-5.79910027D-03
  5.79909688D-03-5.79910027D-03-5.79910027D-03-6.98804375D-16
 -3.19392917D-16-2.35453945D-15 2.99608329D-16 6.74574558D-16
 -1.35721095D-15 2.28881167D-15 2.65445376D-15 6.29874851D-16
 Leave Link  716 at Wed Mar 18 13:58:43 2015, MaxMem=    33554432 cpu:         0.1
 (Enter /usr/local/research/Gaussian09/g09-revD.01/g09/l103.exe)

 GradGradGradGradGradGradGradGradGradGradGradGradGradGradGradGradGradGrad
 Berny optimization.
 Using GEDIIS/GDIIS optimizer.
 FormGI is forming the generalized inverse of G from B-inverse, IUseBI=4.
 Internal  Forces:  Max     0.037142828 RMS     0.013686292
 Search for a local minimum.
 Step number   2 out of a maximum of   38
 All quantities printed in internal units (Hartrees-Bohrs-Radians)
 RMS Force = .13686D-01 SwitMx=.10000D-02 MixMth= 1
 Mixed Optimization -- RFO/linear search
 Update second derivatives using D2CorX and points    1    2
 DE= -3.71D-02 DEPred=-3.79D-02 R= 9.79D-01
 TightC=F SS=  1.41D+00  RLast= 3.00D-01 DXNew= 5.0454D-01 8.9999D-01
 Trust test= 9.79D-01 RLast= 3.00D-01 DXMaxT set to 5.05D-01
 ITU=  1  0
 Use linear search instead of GDIIS.
     Eigenvalues ---    0.00369   0.05602   0.05602   0.05995   0.05995
     Eigenvalues ---    0.15783   0.16000   0.16000   0.16000   0.16000
     Eigenvalues ---    0.16078   0.28019   0.37211   0.37230   0.37230
     Eigenvalues ---    0.37230   0.37230   0.38377
 RFO step:  Lambda=-1.28650483D-03 EMin= 3.69149394D-03
 Quartic linear search produced a step of  0.88999.
 Iteration  1 RMS(Cart)=  0.05935205 RMS(Int)=  0.00207597
 Iteration  2 RMS(Cart)=  0.00275802 RMS(Int)=  0.00074457
 Iteration  3 RMS(Cart)=  0.00000673 RMS(Int)=  0.00074455
 Iteration  4 RMS(Cart)=  0.00000001 RMS(Int)=  0.00074455
 ITry= 1 IFail=0 DXMaxC= 1.59D-01 DCOld= 1.00D+10 DXMaxT= 5.05D-01 DXLimC= 3.00D+00 Rises=F
 ClnCor:  largest displacement from symmetrization is 2.54D-08 for atom     6.
 Variable       Old X    -DE/DX   Delta X   Delta X   Delta X     New X
                                 (Linear)    (Quad)   (Total)
    R1        1.96242  -0.01466  -0.05303   0.00031  -0.05272   1.90970
    R2        1.96242  -0.01466  -0.05303   0.00031  -0.05272   1.90970
    R3        1.96242  -0.01466  -0.05303   0.00031  -0.05272   1.90970
    R4        2.17602   0.03714   0.13707  -0.00460   0.13247   2.30850
    R5        2.17602   0.03714   0.13707  -0.00460   0.13247   2.30850
    R6        2.17602   0.03714   0.13707  -0.00460   0.13247   2.30850
    R7        2.97319   0.01720   0.05608   0.03414   0.09021   3.06340
    A1        1.89082  -0.00262  -0.01763  -0.00490  -0.02292   1.86790
    A2        1.89082  -0.00262  -0.01763  -0.00490  -0.02292   1.86790
    A3        1.93005   0.00252   0.01728   0.00471   0.02159   1.95164
    A4        1.89082  -0.00262  -0.01763  -0.00490  -0.02292   1.86790
    A5        1.93005   0.00252   0.01728   0.00471   0.02159   1.95164
    A6        1.93005   0.00252   0.01728   0.00471   0.02159   1.95164
    A7        1.92828   0.00449   0.01570   0.03008   0.04410   1.97238
    A8        1.92828   0.00449   0.01570   0.03008   0.04410   1.97238
    A9        1.89264  -0.00467  -0.01601  -0.03130  -0.04874   1.84390
   A10        1.92828   0.00449   0.01570   0.03008   0.04410   1.97238
   A11        1.89264  -0.00467  -0.01601  -0.03130  -0.04874   1.84390
   A12        1.89264  -0.00467  -0.01601  -0.03130  -0.04874   1.84390
    D1        3.14159   0.00000   0.00000   0.00000   0.00000   3.14159
    D2       -1.04720   0.00000   0.00000   0.00000   0.00000  -1.04720
    D3        1.04720   0.00000   0.00000   0.00000   0.00000   1.04720
    D4        1.04720   0.00000   0.00000   0.00000   0.00000   1.04720
    D5        3.14159   0.00000   0.00000   0.00000   0.00000   3.14159
    D6       -1.04720   0.00000   0.00000   0.00000   0.00000  -1.04720
    D7       -1.04720   0.00000   0.00000   0.00000   0.00000  -1.04720
    D8        1.04720   0.00000   0.00000   0.00000   0.00000   1.04720
    D9        3.14159   0.00000   0.00000   0.00000   0.00000   3.14159
         Item               Value     Threshold  Converged?
 Maximum Force            0.037143     0.000450     NO 
 RMS     Force            0.013686     0.000300     NO 
 Maximum Displacement     0.158648     0.001800     NO 
 RMS     Displacement     0.059062     0.001200     NO 
 Predicted change in Energy=-6.798316D-03
 Lowest energy point so far.  Saving SCF results.
 GradGradGradGradGradGradGradGradGradGradGradGradGradGradGradGradGradGrad

 Leave Link  103 at Wed Mar 18 13:58:43 2015, MaxMem=    33554432 cpu:         0.0
 (Enter /usr/local/research/Gaussian09/g09-revD.01/g09/l202.exe)
                          Input orientation:                          
 ---------------------------------------------------------------------
 Center     Atomic      Atomic             Coordinates (Angstroms)
 Number     Number       Type             X           Y           Z
 ---------------------------------------------------------------------
      1          1           0        0.350101   -0.608711   -0.071398
      2          1           0        0.350118    0.798535    0.741076
      3          1           0        0.350118    0.798535   -0.883872
      4          1           0       -1.976077    1.505811   -0.071398
      5          1           0       -1.976099   -0.258683   -1.090129
      6          1           0       -1.976099   -0.258683    0.947334
      7          7           0       -0.025519    0.329458   -0.071398
      8          5           0       -1.646601    0.329478   -0.071398
 ---------------------------------------------------------------------
                    Distance matrix (angstroms):
                    1          2          3          4          5
     1  H    0.000000
     2  H    1.624948   0.000000
     3  H    1.624948   1.624948   0.000000
     4  H    3.143614   2.563502   2.563502   0.000000
     5  H    2.563502   3.143614   2.563502   2.037463   0.000000
     6  H    2.563502   2.563502   3.143614   2.037463   2.037463
     7  N    1.010570   1.010570   1.010570   2.277825   2.277825
     8  B    2.206131   2.206131   2.206131   1.221604   1.221604
                    6          7          8
     6  H    0.000000
     7  N    2.277825   0.000000
     8  B    1.221604   1.621082   0.000000
 Stoichiometry    BH6N
 Framework group  C3V[C3(BN),3SGV(H2)]
 Deg. of freedom     5
 Full point group                 C3V     NOp   6
 RotChk:  IX=0 Diff= 1.22D-15
 Largest Abelian subgroup         CS      NOp   2
 Largest concise Abelian subgroup CS      NOp   2
                         Standard orientation:                         
 ---------------------------------------------------------------------
 Center     Atomic      Atomic             Coordinates (Angstroms)
 Number     Number       Type             X           Y           Z
 ---------------------------------------------------------------------
      1          1           0        0.000000    0.938164    1.088422
      2          1           0        0.812474   -0.469082    1.088422
      3          1           0       -0.812474   -0.469082    1.088422
      4          1           0        0.000000   -1.176330   -1.237782
      5          1           0       -1.018731    0.588165   -1.237782
      6          1           0        1.018731    0.588165   -1.237782
      7          7           0        0.000000    0.000000    0.712791
      8          5           0        0.000000    0.000000   -0.908291
 ---------------------------------------------------------------------
 Rotational constants (GHZ):     73.8334041     18.1617615     18.1617615
 Leave Link  202 at Wed Mar 18 13:58:43 2015, MaxMem=    33554432 cpu:         0.0
 (Enter /usr/local/research/Gaussian09/g09-revD.01/g09/l301.exe)
 Standard basis: def2SVP (5D, 7F)
 Ernie: Thresh=  0.10000D-02 Tol=  0.10000D-05 Strict=F.
 There are    40 symmetry adapted cartesian basis functions of A'  symmetry.
 There are    20 symmetry adapted cartesian basis functions of A"  symmetry.
 There are    38 symmetry adapted basis functions of A'  symmetry.
 There are    20 symmetry adapted basis functions of A"  symmetry.
    58 basis functions,    92 primitive gaussians,    60 cartesian basis functions
     9 alpha electrons        9 beta electrons
       nuclear repulsion energy        40.8958041766 Hartrees.
 IExCor= 1009 DFT=T Ex+Corr=PBE1PBE ExCW=0 ScaHFX=  0.250000
 ScaDFX=  0.750000  0.750000  1.000000  1.000000 ScalE2=  1.000000  1.000000
 IRadAn=      0 IRanWt=     -1 IRanGd=            0 ICorTp=0 IEmpDi=  4
 NAtoms=    8 NActive=    8 NUniq=    4 SFac= 4.00D+00 NAtFMM=   60 NAOKFM=F Big=F
 Integral buffers will be    131072 words long.
 Raffenetti 2 integral format.
 Two-electron integral symmetry is turned on.
 Leave Link  301 at Wed Mar 18 13:58:43 2015, MaxMem=    33554432 cpu:         0.1
 (Enter /usr/local/research/Gaussian09/g09-revD.01/g09/l302.exe)
 NPDir=0 NMtPBC=     1 NCelOv=     1 NCel=       1 NClECP=     1 NCelD=      1
         NCelK=      1 NCelE2=     1 NClLst=     1 CellRange=     0.0.
 One-electron integrals computed using PRISM.
 One-electron integral symmetry used in STVInt
   6 Symmetry operations used in ECPInt.
 ECPInt:  NShTT=     465 NPrTT=    1529 LenC2=     466 LenP2D=    1449.
 LDataN:  DoStor=T MaxTD1= 4 Len=   56
 NBasis=    58 RedAO= T EigKep=  6.74D-03  NBF=    38    20
 NBsUse=    58 1.00D-06 EigRej= -1.00D+00 NBFU=    38    20
 Precomputing XC quadrature grid using
 IXCGrd= 4 IRadAn=           0 IRanWt=          -1 IRanGd=           0 AccXCQ= 0.00D+00.
 Generated NRdTot=       0 NPtTot=           0 NUsed=           0 NTot=          32
 NSgBfM=    60    60    60    60    60 MxSgAt=     8 MxSgA2=     8.
 Leave Link  302 at Wed Mar 18 13:58:44 2015, MaxMem=    33554432 cpu:         0.4
 (Enter /usr/local/research/Gaussian09/g09-revD.01/g09/l303.exe)
 DipDrv:  MaxL=1.
 Leave Link  303 at Wed Mar 18 13:58:44 2015, MaxMem=    33554432 cpu:         0.1
 (Enter /usr/local/research/Gaussian09/g09-revD.01/g09/l401.exe)
[...]
               16            17            18            19            20 
     16  0.502176D-01
     17  0.248383D-01  0.723317D-01
     18 -0.430217D-01 -0.754580D-01  0.159464D+00
     19 -0.131919D-01 -0.247538D-03  0.429178D-03  0.387946D+00
     20 -0.126850D-01  0.347626D-03  0.585947D-04  0.177545D-05  0.724242D+00
     21  0.219711D-01  0.579541D-04  0.279921D-03  0.000000D+00  0.000000D+00
     22 -0.417689D-01 -0.219571D-01  0.380310D-01 -0.849261D-01  0.000000D+00
     23 -0.172677D-01 -0.724277D-01  0.681110D-01  0.000000D+00 -0.549190D-01
     24  0.299087D-01  0.681105D-01 -0.151076D+00  0.000000D+00  0.000000D+00
               21            22            23            24 
     21  0.724242D+00
     22  0.000000D+00  0.226579D+00
     23  0.000000D+00  0.000000D+00  0.386205D+00
     24 -0.549203D-01  0.000000D+00  0.000000D+00  0.386202D+00
 FormGI is forming the generalized inverse of G from B-inverse, IUseBI=4.
 Force constants in internal coordinates: 
                1             2             3             4             5 
      1  0.457176D+00
      2 -0.740127D-03  0.457176D+00
      3 -0.740127D-03 -0.740309D-03  0.457176D+00
      4 -0.119681D-02 -0.139103D-03 -0.139103D-03  0.217700D+00
      5 -0.139020D-03 -0.119654D-02 -0.139147D-03  0.218115D-02  0.217700D+00
      6 -0.139020D-03 -0.139147D-03 -0.119654D-02  0.218115D-02  0.218151D-02
      7  0.361890D-02  0.361934D-02  0.361934D-02  0.515105D-02  0.515092D-02
      8  0.844506D-02  0.844524D-02  0.165073D-02 -0.890344D-03 -0.890536D-03
      9  0.844506D-02  0.165073D-02  0.844524D-02 -0.890344D-03  0.412152D-04
     10 -0.713522D-02 -0.515992D-02 -0.515992D-02  0.161055D-02  0.135777D-04
     11  0.165068D-02  0.844523D-02  0.844523D-02  0.412501D-04 -0.890491D-03
     12 -0.515959D-02 -0.713525D-02 -0.515961D-02  0.134845D-04  0.161071D-02
     13 -0.515959D-02 -0.515961D-02 -0.713525D-02  0.134844D-04  0.135803D-04
     14 -0.551543D-03 -0.551609D-03  0.126012D-02  0.851362D-03  0.851630D-03
     15 -0.551543D-03  0.126012D-02 -0.551609D-03  0.851362D-03 -0.930780D-03
     16  0.556388D-02 -0.287548D-02 -0.287548D-02  0.832005D-02 -0.462006D-02
     17  0.126013D-02 -0.551664D-03 -0.551664D-03 -0.930883D-03  0.851564D-03
     18 -0.287548D-02  0.556397D-02 -0.287534D-02 -0.461977D-02  0.832013D-02
     19 -0.287548D-02 -0.287534D-02  0.556397D-02 -0.461977D-02 -0.462024D-02
     20  0.000000D+00  0.176518D-02 -0.176518D-02  0.000000D+00 -0.278418D-02
     21  0.659423D-03  0.242457D-02 -0.308397D-02  0.274880D-02 -0.351793D-04
     22 -0.659423D-03  0.308397D-02 -0.242457D-02 -0.274880D-02  0.271366D-02
     23 -0.242451D-02 -0.659320D-03  0.308401D-02  0.351795D-04 -0.274893D-02
     24 -0.176509D-02  0.000000D+00  0.176522D-02  0.278398D-02  0.000000D+00
     25 -0.308394D-02  0.659470D-03  0.242462D-02 -0.271362D-02  0.274891D-02
     26  0.242451D-02 -0.308401D-02  0.659320D-03 -0.351795D-04 -0.271374D-02
     27  0.308394D-02 -0.242462D-02 -0.659470D-03  0.271362D-02  0.352626D-04
     28  0.176509D-02 -0.176522D-02  0.000000D+00 -0.278398D-02  0.278410D-02
                6             7             8             9            10 
      6  0.217700D+00
      7  0.515092D-02  0.149079D+00
      8  0.412151D-04 -0.710529D-02  0.436590D-01
      9 -0.890536D-03 -0.710529D-02  0.448612D-02  0.436590D-01
     10  0.135778D-04  0.668894D-02 -0.298360D-01 -0.298360D-01  0.660037D-01
     11 -0.890491D-03 -0.710507D-02  0.448606D-02  0.448606D-02  0.101252D-01
     12  0.135802D-04  0.668886D-02 -0.298362D-01  0.101250D-01 -0.967998D-02
     13  0.161071D-02  0.668886D-02  0.101250D-01 -0.298362D-01 -0.967998D-02
     14 -0.930780D-03 -0.172202D-01  0.200092D-02  0.515820D-03 -0.267533D-02
     15  0.851630D-03 -0.172202D-01  0.515820D-03  0.200092D-02 -0.267533D-02
     16 -0.462006D-02  0.205145D-01 -0.400462D-02 -0.400462D-02  0.185037D-01
     17  0.851564D-03 -0.172200D-01  0.515875D-03  0.515875D-03  0.249583D-02
     18 -0.462024D-02  0.205142D-01 -0.400478D-02  0.439666D-02 -0.755138D-02
     19  0.832013D-02  0.205142D-01  0.439666D-02 -0.400478D-02 -0.755138D-02
     20  0.278418D-02  0.000000D+00  0.835239D-02 -0.835239D-02  0.000000D+00
     21 -0.271366D-02  0.000000D+00  0.679678D-02 -0.757457D-02  0.219670D-02
     22  0.351793D-04  0.000000D+00  0.757457D-02 -0.679678D-02 -0.219670D-02
     23  0.271374D-02  0.000000D+00 -0.679684D-02 -0.777879D-03 -0.995886D-04
     24 -0.278410D-02  0.000000D+00 -0.835245D-02  0.000000D+00  0.209711D-02
     25 -0.352627D-04  0.000000D+00 -0.757466D-02  0.777732D-03 -0.229629D-02
     26  0.274893D-02  0.000000D+00  0.777879D-03  0.679684D-02  0.995886D-04
     27 -0.274891D-02  0.000000D+00 -0.777732D-03  0.757466D-02  0.229629D-02
     28  0.000000D+00  0.000000D+00  0.000000D+00  0.835245D-02 -0.209711D-02
               11            12            13            14            15 
     11  0.436589D-01
     12 -0.298361D-01  0.660041D-01
     13 -0.298361D-01 -0.967998D-02  0.660041D-01
     14  0.515913D-03 -0.267543D-02  0.249581D-02  0.385180D-01
     15  0.515913D-03  0.249581D-02 -0.267543D-02  0.102293D-01  0.385180D-01
     16  0.439662D-02 -0.755139D-02 -0.755139D-02 -0.361435D-01 -0.361435D-01
     17  0.200102D-02 -0.267545D-02 -0.267545D-02  0.102293D-01  0.102293D-01
     18 -0.400482D-02  0.185040D-01 -0.755134D-02 -0.361437D-01  0.202862D-02
     19 -0.400482D-02 -0.755134D-02  0.185040D-01  0.202862D-02 -0.361437D-01
     20  0.000000D+00 -0.209707D-02  0.209707D-02 -0.520716D-02  0.520716D-02
     21  0.777803D-03  0.996252D-04 -0.229633D-02  0.414249D-02  0.532380D-03
     22 -0.777803D-03  0.229633D-02 -0.996252D-04 -0.532380D-03 -0.414249D-02
     23  0.757456D-02 -0.219667D-02  0.229641D-02 -0.414244D-02  0.467482D-02
     24  0.835236D-02  0.000000D+00 -0.209699D-02  0.520721D-02  0.000000D+00
     25  0.679675D-02  0.219673D-02  0.997154D-04  0.532341D-03 -0.467483D-02
     26 -0.757456D-02 -0.229641D-02  0.219667D-02 -0.467482D-02  0.414244D-02
     27 -0.679675D-02 -0.997154D-04 -0.219673D-02  0.467483D-02 -0.532341D-03
     28 -0.835236D-02  0.209699D-02  0.000000D+00  0.000000D+00 -0.520721D-02
               16            17            18            19            20 
     16  0.112300D+00
     17  0.202882D-02  0.385179D-01
     18 -0.143010D-01 -0.361437D-01  0.112301D+00
     19 -0.143010D-01 -0.361437D-01 -0.143012D-01  0.112301D+00
     20  0.000000D+00  0.000000D+00 -0.340795D-02  0.340795D-02  0.113957D-01
     21  0.570231D-02 -0.467477D-02  0.229453D-02 -0.799696D-02  0.380753D-02
     22 -0.570231D-02  0.467477D-02  0.799696D-02 -0.229453D-02  0.380753D-02
     23 -0.229457D-02 -0.532339D-03 -0.570248D-02  0.799700D-02  0.223137D-02
     24  0.340774D-02 -0.520711D-02  0.000000D+00 -0.340792D-02 -0.535685D-02
     25 -0.799687D-02  0.414243D-02  0.570243D-02  0.229451D-02 -0.535685D-02
     26  0.229457D-02  0.532339D-03 -0.799700D-02  0.570248D-02  0.223137D-02
     27  0.799687D-02 -0.414243D-02 -0.229451D-02 -0.570243D-02 -0.535685D-02
     28 -0.340774D-02  0.520711D-02  0.340792D-02  0.000000D+00 -0.535685D-02
               21            22            23            24            25 
     21  0.123805D-01
     22  0.429993D-02  0.123805D-01
     23 -0.634159D-02 -0.584921D-02  0.123805D-01
     24  0.223133D-02 -0.535681D-02  0.380757D-02  0.113957D-01
     25 -0.584919D-02  0.272371D-02  0.429995D-02  0.380761D-02  0.123805D-01
     26 -0.584921D-02 -0.634159D-02  0.272373D-02 -0.535685D-02 -0.584923D-02
     27  0.272371D-02 -0.584919D-02 -0.584923D-02  0.223133D-02 -0.634157D-02
     28 -0.535681D-02  0.223133D-02 -0.535685D-02 -0.535681D-02  0.223133D-02
               26            27            28 
     26  0.123805D-01
     27  0.429995D-02  0.123805D-01
     28  0.380757D-02  0.380761D-02  0.113957D-01
 Leave Link  716 at Wed Mar 18 13:59:41 2015, MaxMem=    33554432 cpu:         0.0
 (Enter /usr/local/research/Gaussian09/g09-revD.01/g09/l103.exe)

 GradGradGradGradGradGradGradGradGradGradGradGradGradGradGradGradGradGrad
 Berny optimization.
 Red2BG is reusing G-inverse.
 Internal  Forces:  Max     0.000190024 RMS     0.000077403
 Search for a local minimum.
 Step number   1 out of a maximum of    2
 All quantities printed in internal units (Hartrees-Bohrs-Radians)
 Second derivative matrix not updated -- analytic derivatives used.
 ITU=  0
     Eigenvalues ---    0.00205   0.03520   0.03520   0.04034   0.04034
     Eigenvalues ---    0.08944   0.09128   0.09128   0.10396   0.15275
     Eigenvalues ---    0.15275   0.19401   0.21841   0.21841   0.22377
     Eigenvalues ---    0.45760   0.45842   0.45842
 Angle between quadratic step and forces=  33.08 degrees.
 Linear search not attempted -- first point.
 Iteration  1 RMS(Cart)=  0.00031419 RMS(Int)=  0.00000011
 Iteration  2 RMS(Cart)=  0.00000009 RMS(Int)=  0.00000007
 ITry= 1 IFail=0 DXMaxC= 1.20D-03 DCOld= 1.00D+10 DXMaxT= 3.00D-01 DXLimC= 3.00D+00 Rises=F
 ClnCor:  largest displacement from symmetrization is 1.67D-08 for atom     6.
 Variable       Old X    -DE/DX   Delta X   Delta X   Delta X     New X
                                 (Linear)    (Quad)   (Total)
    R1        1.92821   0.00015   0.00000   0.00029   0.00029   1.92850
    R2        1.92821   0.00015   0.00000   0.00029   0.00029   1.92850
    R3        1.92821   0.00015   0.00000   0.00029   0.00029   1.92850
    R4        2.31457  -0.00014   0.00000  -0.00066  -0.00066   2.31391
    R5        2.31457  -0.00014   0.00000  -0.00066  -0.00066   2.31391
    R6        2.31457  -0.00014   0.00000  -0.00066  -0.00066   2.31391
    R7        3.08808   0.00019   0.00000   0.00172   0.00172   3.08980
    A1        1.87920   0.00002   0.00000   0.00025   0.00025   1.87945
    A2        1.87920   0.00002   0.00000   0.00025   0.00025   1.87945
    A3        1.94111  -0.00002   0.00000  -0.00024  -0.00024   1.94087
    A4        1.87920   0.00002   0.00000   0.00025   0.00025   1.87945
    A5        1.94111  -0.00002   0.00000  -0.00024  -0.00024   1.94087
    A6        1.94111  -0.00002   0.00000  -0.00024  -0.00024   1.94087
    A7        1.97478   0.00003   0.00000   0.00039   0.00039   1.97518
    A8        1.97478   0.00003   0.00000   0.00039   0.00039   1.97518
    A9        1.84105  -0.00003   0.00000  -0.00047  -0.00047   1.84058
   A10        1.97478   0.00003   0.00000   0.00039   0.00039   1.97518
   A11        1.84105  -0.00003   0.00000  -0.00047  -0.00047   1.84058
   A12        1.84105  -0.00003   0.00000  -0.00047  -0.00047   1.84058
    D1        3.14159   0.00000   0.00000   0.00000   0.00000   3.14159
    D2       -1.04720   0.00000   0.00000   0.00000   0.00000  -1.04720
    D3        1.04720   0.00000   0.00000   0.00000   0.00000   1.04720
    D4        1.04720   0.00000   0.00000   0.00000   0.00000   1.04720
    D5        3.14159   0.00000   0.00000   0.00000   0.00000   3.14159
    D6       -1.04720   0.00000   0.00000   0.00000   0.00000  -1.04720
    D7       -1.04720   0.00000   0.00000   0.00000   0.00000  -1.04720
    D8        1.04720   0.00000   0.00000   0.00000   0.00000   1.04720
    D9        3.14159   0.00000   0.00000   0.00000   0.00000   3.14159
         Item               Value     Threshold  Converged?
 Maximum Force            0.000190     0.000450     YES
 RMS     Force            0.000077     0.000300     YES
 Maximum Displacement     0.001200     0.001800     YES
 RMS     Displacement     0.000314     0.001200     YES
 Predicted change in Energy=-4.209790D-07
 Optimization completed.
    -- Stationary point found.
                           ----------------------------
                           !   Optimized Parameters   !
                           ! (Angstroms and Degrees)  !
 --------------------------                            --------------------------
 ! Name  Definition              Value          Derivative Info.                !
 --------------------------------------------------------------------------------
 ! R1    R(1,7)                  1.0204         -DE/DX =    0.0001              !
 ! R2    R(2,7)                  1.0204         -DE/DX =    0.0001              !
 ! R3    R(3,7)                  1.0204         -DE/DX =    0.0001              !
 ! R4    R(4,8)                  1.2248         -DE/DX =   -0.0001              !
 ! R5    R(5,8)                  1.2248         -DE/DX =   -0.0001              !
 ! R6    R(6,8)                  1.2248         -DE/DX =   -0.0001              !
 ! R7    R(7,8)                  1.6341         -DE/DX =    0.0002              !
 ! A1    A(1,7,2)              107.67           -DE/DX =    0.0                 !
 ! A2    A(1,7,3)              107.67           -DE/DX =    0.0                 !
 ! A3    A(1,7,8)              111.2174         -DE/DX =    0.0                 !
 ! A4    A(2,7,3)              107.67           -DE/DX =    0.0                 !
 ! A5    A(2,7,8)              111.2174         -DE/DX =    0.0                 !
 ! A6    A(3,7,8)              111.2174         -DE/DX =    0.0                 !
 ! A7    A(4,8,5)              113.1468         -DE/DX =    0.0                 !
 ! A8    A(4,8,6)              113.1468         -DE/DX =    0.0                 !
 ! A9    A(4,8,7)              105.4842         -DE/DX =    0.0                 !
 ! A10   A(5,8,6)              113.1468         -DE/DX =    0.0                 !
 ! A11   A(5,8,7)              105.4842         -DE/DX =    0.0                 !
 ! A12   A(6,8,7)              105.4842         -DE/DX =    0.0                 !
 ! D1    D(1,7,8,4)            180.0            -DE/DX =    0.0                 !
 ! D2    D(1,7,8,5)            -60.0            -DE/DX =    0.0                 !
 ! D3    D(1,7,8,6)             60.0            -DE/DX =    0.0                 !
 ! D4    D(2,7,8,4)             60.0            -DE/DX =    0.0                 !
 ! D5    D(2,7,8,5)            180.0            -DE/DX =    0.0                 !
 ! D6    D(2,7,8,6)            -60.0            -DE/DX =    0.0                 !
 ! D7    D(3,7,8,4)            -60.0            -DE/DX =    0.0                 !
 ! D8    D(3,7,8,5)             60.0            -DE/DX =    0.0                 !
 ! D9    D(3,7,8,6)            180.0            -DE/DX =    0.0                 !
 --------------------------------------------------------------------------------
 GradGradGradGradGradGradGradGradGradGradGradGradGradGradGradGradGradGrad

 Leave Link  103 at Wed Mar 18 13:59:41 2015, MaxMem=    33554432 cpu:         0.0
 (Enter /usr/local/research/Gaussian09/g09-revD.01/g09/l9999.exe)

 Test job not archived.
 1\1\GINC-HEISENBERG\Freq\RPBE1PBE\def2SVP\B1H6N1\LEIN\18-Mar-2015\0\\#
 P Geom=AllCheck Guess=TCheck SCRF=Check Test GenChk RPBE1PBE/def2SVP F
 req\\-- H3B...NH3 --\\0,1\H,0.351722055,-0.6217474657,-0.0713975655\H,
 0.3517397236,0.8050534528,0.7523661735\H,0.3517396529,0.8050533181,-0.
 8951615377\H,-1.9786625914,1.5098436667,-0.0713976397\H,-1.9786845166,
 -0.2606990634,-1.0936207687\H,-1.9786844289,-0.2606988964,0.9508257788
 \N,-0.0175447014,0.3294576655,-0.0713976274\B,-1.6516839274,0.32947786
 11,-0.0713975572\\Version=EM64L-G09RevD.01\State=1-A1\HF=-83.0409745\R
 MSD=4.329e-10\RMSF=1.067e-04\ZeroPoint=0.0698666\Thermal=0.0736453\Dip
 ole=2.2580284,-0.0000279,0.\DipoleDeriv=0.167455,0.0397186,0.,0.019493
 7,0.2112005,0.,0.,0.,0.19887,0.1674414,-0.0198601,-0.0344059,-0.009745
 1,0.2019548,0.0053407,-0.0168778,0.0053438,0.2081196,0.1674414,-0.0198
 601,0.0344059,-0.0097451,0.2019548,-0.0053407,0.0168778,-0.0053438,0.2
 081196,-0.1858171,-0.0100456,0.,0.0932127,-0.4151211,0.,0.,0.,-0.09405
 07,-0.1858248,0.005016,0.0086716,-0.0465948,-0.1743286,-0.1390384,-0.0
 80712,-0.1390322,-0.3348803,-0.1858248,0.005016,-0.0086716,-0.0465948,
 -0.1743285,0.1390384,0.080712,0.1390321,-0.3348804,-0.6579036,-0.00003
 41,0.,-0.0000176,-0.221318,0.,0.,0.,-0.2213353,0.7130696,0.0000633,0.,
 -0.0000369,0.3700047,0.,0.,0.,0.3700902\Polar=24.0926089,0.0008192,26.
 1240266,0.,0.,26.1250132\PG=C03V [C3(B1N1),3SGV(H2)]\NImag=0\\0.090767
 15,-0.13387741,0.40844800,0.,-0.00000002,0.05584550,0.00261848,0.00675
 999,0.01352394,0.09077212,-0.01509268,-0.01308418,-0.02977808,0.066941
 34,0.14399367,0.00090770,0.00293063,0.00241600,0.11594653,0.15267850,0
 .32029486,0.00261848,0.00675999,-0.01352394,0.00261879,0.00833239,-0.0
 1261685,0.09077210,-0.01509268,-0.01308418,0.02977808,0.00833239,0.010
 16594,-0.01635412,0.06694131,0.14399362,-0.00090770,-0.00293063,0.0024
 1600,0.01261685,0.01635412,-0.02083442,-0.11594652,-0.15267848,0.32029
 493,-0.00638250,-0.00012310,0.,0.00181969,0.00040354,0.00063666,0.0018
 1969,0.00040354,-0.00063666,0.05021579,-0.00093823,0.00162180,0.,0.000
 68660,-0.00042054,0.00022417,0.00068660,-0.00042054,-0.00022417,-0.049
 67421,0.20303155,0.,0.,0.00087693,0.00063410,0.00025183,-0.00020808,-0
 .00063410,-0.00025183,-0.00020808,0.,-0.00000001,0.02876632,0.00181966
 ,-0.00075316,-0.00003117,-0.00638248,0.00006169,0.00010670,0.00181969,
 0.00034955,-0.00066783,0.00374326,0.00241593,0.00490577,0.05021764,-0.
 00089248,-0.00005504,0.00004084,0.00046926,0.00106314,0.00032253,0.000
 20580,-0.00046732,-0.00022482,-0.00545685,-0.00682789,-0.01486996,0.02
 483833,0.07233172,-0.00027759,0.00001318,-0.00057354,0.00081262,0.0003
 2252,0.00143557,-0.00091169,-0.00019716,-0.00016129,0.00036061,0.00001
 629,0.00174781,0.04302170,0.07545800,0.15946431,0.00181966,-0.00075316
 ,0.00003117,0.00181969,0.00034955,0.00066783,-0.00638248,0.00006169,-0
 .00010670,0.00374326,0.00241593,-0.00490578,0.00374338,0.00304068,-0.0
 0454544,0.05021763,-0.00089248,-0.00005504,-0.00004084,0.00020580,-0.0
 0046732,0.00022482,0.00046926,0.00106314,-0.00032253,-0.00545685,-0.00
 682789,0.01486996,0.00304068,0.00603560,-0.00744304,0.02483832,0.07233
 169,0.00027759,-0.00001318,-0.00057354,0.00091169,0.00019716,-0.000161
 29,-0.00081262,-0.00032252,0.00143557,-0.00036061,-0.00001628,0.001747
 81,0.00454544,0.00744304,-0.01111580,-0.04302170,-0.07545799,0.1594643
 4,-0.08781184,0.11965624,0.,-0.08781663,-0.05983016,-0.10362965,-0.087
 81661,-0.05983013,0.10362964,-0.01319195,0.00049607,0.,-0.01319194,-0.
 00024754,-0.00042918,-0.01319194,-0.00024754,0.00042918,0.38794577,0.1
 4334071,-0.38605844,0.00000002,-0.07167205,-0.14210266,-0.14084323,-0.
 07167202,-0.14210262,0.14084321,0.02537019,0.00024565,0.,-0.01268501,0
 .00034763,-0.00005859,-0.01268501,0.00034763,0.00005859,0.00000178,0.7
 2424238,-0.00000001,0.00000002,-0.06078716,-0.12414101,-0.14084362,-0.
 30473813,0.12414101,0.14084360,-0.30473819,0.,0.,0.00038152,-0.0219711
 2,-0.00005795,0.00027992,0.02197112,0.00005795,0.00027992,0.00000001,0
 .,0.72424226,-0.00544903,0.00233141,0.,-0.00544929,-0.00116547,-0.0020
 1952,-0.00544929,-0.00116547,0.00201952,-0.04176732,0.04391205,0.,-0.0
 4176895,-0.02195711,-0.03803097,-0.04176894,-0.02195709,0.03803097,-0.
 08492605,0.00000004,0.,0.22657877,0.02344539,0.00226616,0.,-0.01172264
 ,0.00085236,0.00081665,-0.01172264,0.00085236,-0.00081664,0.03453371,-
 0.19040193,0.00000001,-0.01726770,-0.07242775,-0.06811104,-0.01726769,
 -0.07242773,0.06811103,-0.00000019,-0.05491904,0.,0.00000098,0.3862048
 6,0.,0.,0.00038061,-0.02030410,0.00081702,0.00179522,0.02030411,-0.000
 81702,0.00179522,0.,0.00000001,-0.03310429,-0.02990867,-0.06811056,-0.
 15107563,0.02990867,0.06811055,-0.15107565,0.,0.,-0.05492032,0.,0.,0.3
 8620213\\-0.00003202,0.00014597,0.,-0.00003202,-0.00007298,-0.00012641
 ,-0.00003202,-0.00007298,0.00012641,-0.00006046,0.00012744,0.,-0.00006
 046,-0.00006372,-0.00011036,-0.00006046,-0.00006372,0.00011036,-0.0000
 9396,0.,0.,0.00037141,0.,0.\\\@


 A SCIENTIST IS SOMEONE WHOSE CURIOSITY SURVIVES
 EDUCATION'S ASSAULTS ON IT.
                          - SIR HERMANN BONDI
 Job cpu time:       0 days  0 hours  0 minutes 35.4 seconds.
 File lengths (MBytes):  RWF=      5 Int=      0 D2E=      0 Chk=      1 Scr=      1
 Normal termination of Gaussian 09 at Wed Mar 18 13:59:41 2015.
