 Entering Gaussian System, Link 0=g09
 Initial command:
 /usr/local/research/Gaussian09/g09-revD.01/g09/l1.exe "/scratch/lein/Gau-29878.inp" -scrdir="/scratch/lein/"
 Entering Link 1 = /usr/local/research/Gaussian09/g09-revD.01/g09/l1.exe PID=     29881.
  
 Copyright (c) 1988,1990,1992,1993,1995,1998,2003,2009,2013,
            Gaussian, Inc.  All Rights Reserved.
  
 This is part of the Gaussian(R) 09 program.  It is based on
 the Gaussian(R) 03 system (copyright 2003, Gaussian, Inc.),
 the Gaussian(R) 98 system (copyright 1998, Gaussian, Inc.),
 the Gaussian(R) 94 system (copyright 1995, Gaussian, Inc.),
 the Gaussian 92(TM) system (copyright 1992, Gaussian, Inc.),
 the Gaussian 90(TM) system (copyright 1990, Gaussian, Inc.),
 the Gaussian 88(TM) system (copyright 1988, Gaussian, Inc.),
 the Gaussian 86(TM) system (copyright 1986, Carnegie Mellon
 University), and the Gaussian 82(TM) system (copyright 1983,
 Carnegie Mellon University). Gaussian is a federally registered
 trademark of Gaussian, Inc.
  
 This software contains proprietary and confidential information,
 including trade secrets, belonging to Gaussian, Inc.
  
 This software is provided under written license and may be
 used, copied, transmitted, or stored only in accord with that
 written license.
  
 The following legend is applicable only to US Government
 contracts under FAR:
  
                    RESTRICTED RIGHTS LEGEND
  
 Use, reproduction and disclosure by the US Government is
 subject to restrictions as set forth in subparagraphs (a)
 and (c) of the Commercial Computer Software - Restricted
 Rights clause in FAR 52.227-19.
  
 Gaussian, Inc.
 340 Quinnipiac St., Bldg. 40, Wallingford CT 06492
  
  
 ---------------------------------------------------------------
 Warning -- This program may not be used in any manner that
 competes with the business of Gaussian, Inc. or will provide
 assistance to any competitor of Gaussian, Inc.  The licensee
 of this program is prohibited from giving any competitor of
 Gaussian, Inc. access to this program.  By using this program,
 the user acknowledges that Gaussian, Inc. is engaged in the
 business of creating and licensing software in the field of
 computational chemistry and represents and warrants to the
 licensee that it is not a competitor of Gaussian, Inc. and that
 it will not use this program in any manner prohibited above.
 ---------------------------------------------------------------
  

 Cite this work as:
 Gaussian 09, Revision D.01,
 M. J. Frisch, G. W. Trucks, H. B. Schlegel, G. E. Scuseria, 
 M. A. Robb, J. R. Cheeseman, G. Scalmani, V. Barone, B. Mennucci, 
 G. A. Petersson, H. Nakatsuji, M. Caricato, X. Li, H. P. Hratchian, 
 A. F. Izmaylov, J. Bloino, G. Zheng, J. L. Sonnenberg, M. Hada, 
 M. Ehara, K. Toyota, R. Fukuda, J. Hasegawa, M. Ishida, T. Nakajima, 
 Y. Honda, O. Kitao, H. Nakai, T. Vreven, J. A. Montgomery, Jr., 
 J. E. Peralta, F. Ogliaro, M. Bearpark, J. J. Heyd, E. Brothers, 
 K. N. Kudin, V. N. Staroverov, T. Keith, R. Kobayashi, J. Normand, 
 K. Raghavachari, A. Rendell, J. C. Burant, S. S. Iyengar, J. Tomasi, 
 M. Cossi, N. Rega, J. M. Millam, M. Klene, J. E. Knox, J. B. Cross, 
 V. Bakken, C. Adamo, J. Jaramillo, R. Gomperts, R. E. Stratmann, 
 O. Yazyev, A. J. Austin, R. Cammi, C. Pomelli, J. W. Ochterski, 
 R. L. Martin, K. Morokuma, V. G. Zakrzewski, G. A. Voth, 
 P. Salvador, J. J. Dannenberg, S. Dapprich, A. D. Daniels, 
 O. Farkas, J. B. Foresman, J. V. Ortiz, J. Cioslowski, 
 and D. J. Fox, Gaussian, Inc., Wallingford CT, 2013.
 
 ******************************************
 Gaussian 09:  EM64L-G09RevD.01 24-Apr-2013
                 4-Mar-2015 
 ******************************************
 %chk=ethane.chk
 ------------------------------------------------------------
 #p opt=verytight freq b3lyp def2svp guess=read geom=allcheck
 ------------------------------------------------------------
 1/7=1,14=-1,18=20,19=15,26=3,29=7,38=1/1,3;
 2/9=110,12=2,40=1/2;
 3/5=43,7=101,11=2,14=-4,16=1,25=1,30=1,71=1,74=-5,116=-2/1,2,3;
 4/5=1/1;
 5/5=2,38=6/2;
 6/7=2,8=2,9=2,10=2,28=1/1;
 7//1,2,3,16;
 1/7=1,14=-1,18=20,19=15,26=3/3(2);
 2/9=110/2;
 99//99;
 2/9=110/2;
 3/5=43,7=101,11=2,14=-2,16=1,25=1,30=1,71=1,74=-5/1,2,3;
 4/5=5,16=3,69=1/1;
 5/5=2,38=5/2;
 7//1,2,3,16;
 1/7=1,14=-1,18=20,19=15,26=3/3(-5);
 2/9=110/2;
 6/7=2,8=2,9=2,10=2,19=2,28=1/1;
 99/9=1/99;
 Leave Link    1 at Wed Mar  4 21:43:39 2015, MaxMem=           0 cpu:         0.0
 (Enter /usr/local/research/Gaussian09/g09-revD.01/g09/l101.exe)
 Structure from the checkpoint file:  "ethane.chk"
 ----------------------
 -- ethane staggered --
 ----------------------
 Charge =  0 Multiplicity = 1
 Redundant internal coordinates found in file.
 C,0,-0.3327995515,-0.0960272384,0.0050356022
 H,0,0.0153407035,-1.1414513337,-0.0294789414
 H,0,0.0157904635,0.3964839531,-0.9175814134
 H,0,-1.4344820919,-0.115788162,-0.0297424952
 C,0,0.1764309227,0.624114334,1.25236933
 H,0,1.2781134966,0.6441601786,1.2869829161
 H,0,-0.1719779797,1.6694434836,1.2870483666
 H,0,-0.1718904786,0.1314131671,2.174986364
 Recover connectivity data from disk.
 NAtoms=      8 NQM=        8 NQMF=       0 NMMI=      0 NMMIF=      0
                NMic=       0 NMicF=      0.
                    Isotopes and Nuclear Properties:
 (Nuclear quadrupole moments (NQMom) in fm**2, nuclear magnetic moments (NMagM)
  in nuclear magnetons)

  Atom         1           2           3           4           5           6           7           8
 IAtWgt=          12           1           1           1          12           1           1           1
 AtmWgt=  12.0000000   1.0078250   1.0078250   1.0078250  12.0000000   1.0078250   1.0078250   1.0078250
 NucSpn=           0           1           1           1           0           1           1           1
 AtZEff=  -3.6000000  -1.0000000  -1.0000000  -1.0000000  -3.6000000  -1.0000000  -1.0000000  -1.0000000
 NQMom=    0.0000000   0.0000000   0.0000000   0.0000000   0.0000000   0.0000000   0.0000000   0.0000000
 NMagM=    0.0000000   2.7928460   2.7928460   2.7928460   0.0000000   2.7928460   2.7928460   2.7928460
 AtZNuc=   6.0000000   1.0000000   1.0000000   1.0000000   6.0000000   1.0000000   1.0000000   1.0000000
 Leave Link  101 at Wed Mar  4 21:43:39 2015, MaxMem=    33554432 cpu:         0.2
 (Enter /usr/local/research/Gaussian09/g09-revD.01/g09/l103.exe)

 GradGradGradGradGradGradGradGradGradGradGradGradGradGradGradGradGradGrad
 Berny optimization.
 Initialization pass.
                           ----------------------------
                           !    Initial Parameters    !
                           ! (Angstroms and Degrees)  !
 --------------------------                            --------------------------
 ! Name  Definition              Value          Derivative Info.                !
 --------------------------------------------------------------------------------
 ! R1    R(1,2)                  1.1024         estimate D2E/DX2                !
 ! R2    R(1,3)                  1.1024         estimate D2E/DX2                !
 ! R3    R(1,4)                  1.1024         estimate D2E/DX2                !
 ! R4    R(1,5)                  1.5277         estimate D2E/DX2                !
 ! R5    R(5,6)                  1.1024         estimate D2E/DX2                !
 ! R6    R(5,7)                  1.1024         estimate D2E/DX2                !
 ! R7    R(5,8)                  1.1024         estimate D2E/DX2                !
 ! A1    A(2,1,3)              107.3138         estimate D2E/DX2                !
 ! A2    A(2,1,4)              107.3138         estimate D2E/DX2                !
 ! A3    A(2,1,5)              111.5509         estimate D2E/DX2                !
 ! A4    A(3,1,4)              107.3138         estimate D2E/DX2                !
 ! A5    A(3,1,5)              111.5509         estimate D2E/DX2                !
 ! A6    A(4,1,5)              111.5509         estimate D2E/DX2                !
 ! A7    A(1,5,6)              111.5509         estimate D2E/DX2                !
 ! A8    A(1,5,7)              111.5509         estimate D2E/DX2                !
 ! A9    A(1,5,8)              111.5509         estimate D2E/DX2                !
 ! A10   A(6,5,7)              107.3138         estimate D2E/DX2                !
 ! A11   A(6,5,8)              107.3138         estimate D2E/DX2                !
 ! A12   A(7,5,8)              107.3138         estimate D2E/DX2                !
 ! D1    D(2,1,5,6)             60.0184         estimate D2E/DX2                !
 ! D2    D(2,1,5,7)           -179.9816         estimate D2E/DX2                !
 ! D3    D(2,1,5,8)            -59.9816         estimate D2E/DX2                !
 ! D4    D(3,1,5,6)            -59.9816         estimate D2E/DX2                !
 ! D5    D(3,1,5,7)             60.0184         estimate D2E/DX2                !
 ! D6    D(3,1,5,8)           -179.9816         estimate D2E/DX2                !
 ! D7    D(4,1,5,6)           -179.9816         estimate D2E/DX2                !
 ! D8    D(4,1,5,7)            -59.9816         estimate D2E/DX2                !
 ! D9    D(4,1,5,8)             60.0184         estimate D2E/DX2                !
 --------------------------------------------------------------------------------
 Trust Radius=3.00D-01 FncErr=1.00D-07 GrdErr=1.00D-06
 Number of steps in this run=     38 maximum allowed number of steps=    100.
 GradGradGradGradGradGradGradGradGradGradGradGradGradGradGradGradGradGrad

 Leave Link  103 at Wed Mar  4 21:43:39 2015, MaxMem=    33554432 cpu:         0.0
 (Enter /usr/local/research/Gaussian09/g09-revD.01/g09/l202.exe)
                          Input orientation:                          
 ---------------------------------------------------------------------
 Center     Atomic      Atomic             Coordinates (Angstroms)
 Number     Number       Type             X           Y           Z
 ---------------------------------------------------------------------
      1          6           0       -0.332800   -0.096027    0.005036
      2          1           0        0.015341   -1.141451   -0.029479
      3          1           0        0.015790    0.396484   -0.917581
      4          1           0       -1.434482   -0.115788   -0.029742
      5          6           0        0.176431    0.624114    1.252369
      6          1           0        1.278113    0.644160    1.286983
      7          1           0       -0.171978    1.669443    1.287048
      8          1           0       -0.171890    0.131413    2.174986
 ---------------------------------------------------------------------
                    Distance matrix (angstroms):
                    1          2          3          4          5
     1  C    0.000000
     2  H    1.102408   0.000000
     3  H    1.102408   1.775942   0.000000
     4  H    1.102408   1.775942   1.775942   0.000000
     5  C    1.527665   2.187763   2.187763   2.187763   0.000000
     6  H    2.187763   2.552660   2.552432   3.109576   1.102408
     7  H    2.187763   3.109576   2.552660   2.552432   1.102408
     8  H    2.187763   2.552432   3.109576   2.552660   1.102408
                    6          7          8
     6  H    0.000000
     7  H    1.775942   0.000000
     8  H    1.775942   1.775942   0.000000
 Stoichiometry    C2H6
 Framework group  D3[C3(C.C),X(H6)]
 Deg. of freedom     4
 Full point group                 D3      NOp   6
 RotChk:  IX=0 Diff= 9.34D-16
 Largest Abelian subgroup         C2      NOp   2
 Largest concise Abelian subgroup C2      NOp   2
                         Standard orientation:                         
 ---------------------------------------------------------------------
 Center     Atomic      Atomic             Coordinates (Angstroms)
 Number     Number       Type             X           Y           Z
 ---------------------------------------------------------------------
      1          6           0        0.000000    0.000000    0.763833
      2          1           0        0.512528    0.888053    1.168778
      3          1           0        0.512813   -0.887889    1.168778
      4          1           0       -1.025341   -0.000165    1.168778
      5          6           0        0.000000    0.000000   -0.763833
      6          1           0        1.025341   -0.000165   -1.168778
      7          1           0       -0.512813   -0.887889   -1.168778
      8          1           0       -0.512528    0.888053   -1.168778
 ---------------------------------------------------------------------
 Rotational constants (GHZ):     79.4958287     19.8642745     19.8642745
 Leave Link  202 at Wed Mar  4 21:43:39 2015, MaxMem=    33554432 cpu:         0.0
 (Enter /usr/local/research/Gaussian09/g09-revD.01/g09/l301.exe)
 Standard basis: def2SVP (5D, 7F)
 Ernie: Thresh=  0.10000D-02 Tol=  0.10000D-05 Strict=F.
 There are    30 symmetry adapted cartesian basis functions of A   symmetry.
 There are    30 symmetry adapted cartesian basis functions of B   symmetry.
 There are    29 symmetry adapted basis functions of A   symmetry.
 There are    29 symmetry adapted basis functions of B   symmetry.
    58 basis functions,    92 primitive gaussians,    60 cartesian basis functions
     9 alpha electrons        9 beta electrons
       nuclear repulsion energy        42.0008761783 Hartrees.
 IExCor=  402 DFT=T Ex+Corr=B3LYP ExCW=0 ScaHFX=  0.200000
 ScaDFX=  0.800000  0.720000  1.000000  0.810000 ScalE2=  1.000000  1.000000
 IRadAn=      0 IRanWt=     -1 IRanGd=            0 ICorTp=0 IEmpDi=  4
 NAtoms=    8 NActive=    8 NUniq=    2 SFac= 4.00D+00 NAtFMM=   60 NAOKFM=F Big=F
 Integral buffers will be    131072 words long.
 Raffenetti 2 integral format.
 Two-electron integral symmetry is turned on.
 Leave Link  301 at Wed Mar  4 21:43:39 2015, MaxMem=    33554432 cpu:         0.1
 (Enter /usr/local/research/Gaussian09/g09-revD.01/g09/l302.exe)
 NPDir=0 NMtPBC=     1 NCelOv=     1 NCel=       1 NClECP=     1 NCelD=      1
         NCelK=      1 NCelE2=     1 NClLst=     1 CellRange=     0.0.
 One-electron integrals computed using PRISM.
 One-electron integral symmetry used in STVInt
   6 Symmetry operations used in ECPInt.
 ECPInt:  NShTT=     465 NPrTT=    1529 LenC2=     466 LenP2D=    1445.
 LDataN:  DoStor=T MaxTD1= 4 Len=   56
 NBasis=    58 RedAO= T EigKep=  3.21D-03  NBF=    29    29
 NBsUse=    58 1.00D-06 EigRej= -1.00D+00 NBFU=    29    29
 Precomputing XC quadrature grid using
 IXCGrd= 4 IRadAn=           0 IRanWt=          -1 IRanGd=           0 AccXCQ= 0.00D+00.
 Generated NRdTot=       0 NPtTot=           0 NUsed=           0 NTot=          32
 NSgBfM=    60    60    60    60    60 MxSgAt=     8 MxSgA2=     8.
 Leave Link  302 at Wed Mar  4 21:43:40 2015, MaxMem=    33554432 cpu:         0.4
 (Enter /usr/local/research/Gaussian09/g09-revD.01/g09/l303.exe)
 DipDrv:  MaxL=1.
 Leave Link  303 at Wed Mar  4 21:43:40 2015, MaxMem=    33554432 cpu:         0.1
 (Enter /usr/local/research/Gaussian09/g09-revD.01/g09/l401.exe)
 Initial guess from the checkpoint file:  "ethane.chk"
 B after Tr=     0.000000    0.000000    0.000000
         Rot=    1.000000    0.000000    0.000000    0.000000 Ang=   0.00 deg.
 Guess basis will be translated and rotated to current coordinates.
 JPrj=2 DoOrth=T DoCkMO=T.
 Initial guess orbital symmetries:
       Occupied  (A1) (A2) (A1) (A2) (E) (E) (A1) (E) (E)
       Virtual   (A1) (A2) (E) (E) (E) (E) (A2) (E) (E) (A1) (E)
                 (E) (A2) (A1) (E) (E) (A2) (E) (E) (A1) (A2) (E)
                 (E) (E) (E) (A1) (A2) (A1) (E) (E) (E) (E) (E)
                 (E) (A2) (E) (E) (A1) (E) (E) (A2) (E) (E) (A1)
                 (A2) (E) (E) (E) (E)
 The electronic state of the initial guess is 1-A1.
 Leave Link  401 at Wed Mar  4 21:43:40 2015, MaxMem=    33554432 cpu:         0.2
 (Enter /usr/local/research/Gaussian09/g09-revD.01/g09/l502.exe)
 Closed shell SCF:
 Using DIIS extrapolation, IDIIS=  1040.
 Integral symmetry usage will be decided dynamically.
 Keep R1 ints in memory in symmetry-blocked form, NReq=2380384.
 IVT=       30386 IEndB=       30386 NGot=    33554432 MDV=    32787273
 LenX=    32787273 LenY=    32783232
 Requested convergence on RMS density matrix=1.00D-08 within 128 cycles.
 Requested convergence on MAX density matrix=1.00D-06.
 Requested convergence on             energy=1.00D-06.
 No special actions if energy rises.
 FoFCou: FMM=F IPFlag=           0 FMFlag=           0 FMFlg1=           0
         NFxFlg=           0 DoJE=F BraDBF=F KetDBF=F FulRan=T
         wScrn=  0.000000 ICntrl=     600 IOpCl=  0 I1Cent=           0 NGrid=           0
         NMat0=    1 NMatS0=   1711 NMatT0=    0 NMatD0=    1 NMtDS0=    0 NMtDT0=    0
 Petite list used in FoFCou.

 Cycle   1  Pass 1  IDiag  1:
 E= -79.7716335811024    
 DIIS: error= 6.78D-09 at cycle   1 NSaved=   1.
 NSaved= 1 IEnMin= 1 EnMin= -79.7716335811024     IErMin= 1 ErrMin= 6.78D-09
 ErrMax= 6.78D-09  0.00D+00 EMaxC= 1.00D-01 BMatC= 2.00D-15 BMatP= 2.00D-15
 IDIUse=1 WtCom= 1.00D+00 WtEn= 0.00D+00
 Coeff-Com:  0.100D+01
 Coeff:      0.100D+01
 Gap=     0.404 Goal=   None    Shift=    0.000
 RMSDP=1.51D-09 MaxDP=2.15D-08              OVMax= 2.49D-08

 SCF Done:  E(RB3LYP) =  -79.7716335811     A.U. after    1 cycles
            NFock=  1  Conv=0.15D-08     -V/T= 2.0148
 KE= 7.860626716266D+01 PE=-2.673093752821D+02 EE= 6.693059836000D+01
 Leave Link  502 at Wed Mar  4 21:43:41 2015, MaxMem=    33554432 cpu:         0.6
 (Enter /usr/local/research/Gaussian09/g09-revD.01/g09/l601.exe)
 Copying SCF densities to generalized density rwf, IOpCl= 0 IROHF=0.

 **********************************************************************

            Population analysis using the SCF density.

 **********************************************************************

 Orbital symmetries:
       Occupied  (A1) (A2) (A1) (A2) (E) (E) (A1) (E) (E)
       Virtual   (A1) (A2) (E) (E) (E) (E) (A2) (E) (E) (A1) (E)
                 (E) (A2) (A1) (E) (E) (A2) (E) (E) (A1) (A2) (E)
                 (E) (E) (E) (A1) (A2) (A1) (E) (E) (E) (E) (E)
                 (E) (A2) (E) (E) (A1) (E) (E) (A2) (E) (E) (A1)
                 (A2) (E) (E) (E) (E)
 The electronic state is 1-A1.
 Alpha  occ. eigenvalues --  -10.17853 -10.17851  -0.74295  -0.60645  -0.43167
 Alpha  occ. eigenvalues --   -0.43167  -0.37020  -0.34116  -0.34116
 Alpha virt. eigenvalues --    0.06294   0.10789   0.12336   0.12336   0.15593
 Alpha virt. eigenvalues --    0.15593   0.23407   0.41187   0.41187   0.42788
 Alpha virt. eigenvalues --    0.52305   0.52305   0.61121   0.64217   0.67149
 Alpha virt. eigenvalues --    0.67149   0.68287   0.69498   0.69498   0.76232
 Alpha virt. eigenvalues --    0.96553   1.10427   1.10427   1.36027   1.36027
 Alpha virt. eigenvalues --    1.53985   1.54426   1.72279   1.77260   1.77260
 Alpha virt. eigenvalues --    1.78303   1.78303   1.81719   1.81719   1.85714
 Alpha virt. eigenvalues --    2.02766   2.02766   2.22907   2.35825   2.35825
 Alpha virt. eigenvalues --    2.42966   2.54441   2.54441   2.62152   2.82302
 Alpha virt. eigenvalues --    2.93849   2.93849   3.00257   3.00257
          Condensed to atoms (all electrons):
               1          2          3          4          5          6
     1  C    4.490171   0.389798   0.389798   0.389798   0.452124  -0.022959
     2  H    0.389798   0.677980  -0.026284  -0.026284  -0.022959  -0.007157
     3  H    0.389798  -0.026284   0.677980  -0.026284  -0.022959  -0.007167
     4  H    0.389798  -0.026284  -0.026284   0.677980  -0.022959   0.007803
     5  C    0.452124  -0.022959  -0.022959  -0.022959   4.490171   0.389798
     6  H   -0.022959  -0.007157  -0.007167   0.007803   0.389798   0.677980
     7  H   -0.022959   0.007803  -0.007157  -0.007167   0.389798  -0.026284
     8  H   -0.022959  -0.007167   0.007803  -0.007157   0.389798  -0.026284
               7          8
     1  C   -0.022959  -0.022959
     2  H    0.007803  -0.007167
     3  H   -0.007157   0.007803
     4  H   -0.007167  -0.007157
     5  C    0.389798   0.389798
     6  H   -0.026284  -0.026284
     7  H    0.677980  -0.026284
     8  H   -0.026284   0.677980
 Mulliken charges:
               1
     1  C   -0.042810
     2  H    0.014270
     3  H    0.014270
     4  H    0.014270
     5  C   -0.042810
     6  H    0.014270
     7  H    0.014270
     8  H    0.014270
 Sum of Mulliken charges =   0.00000
 Mulliken charges with hydrogens summed into heavy atoms:
               1
     1  C    0.000000
     5  C    0.000000
 Electronic spatial extent (au):  <R**2>=            110.4244
 Charge=              0.0000 electrons
 Dipole moment (field-independent basis, Debye):
    X=              0.0000    Y=              0.0000    Z=              0.0000  Tot=              0.0000
 Quadrupole moment (field-independent basis, Debye-Ang):
   XX=            -14.8914   YY=            -14.8914   ZZ=            -15.4466
   XY=              0.0000   XZ=              0.0000   YZ=              0.0000
 Traceless Quadrupole moment (field-independent basis, Debye-Ang):
   XX=              0.1851   YY=              0.1851   ZZ=             -0.3702
   XY=              0.0000   XZ=              0.0000   YZ=              0.0000
 Octapole moment (field-independent basis, Debye-Ang**2):
  XXX=              0.0000  YYY=              0.0004  ZZZ=              0.0000  XYY=              0.0000
  XXY=             -0.0004  XXZ=              0.0000  XZZ=              0.0000  YZZ=              0.0000
  YYZ=              0.0000  XYZ=              0.0000
 Hexadecapole moment (field-independent basis, Debye-Ang**3):
 XXXX=            -29.7482 YYYY=            -29.7482 ZZZZ=            -94.3375 XXXY=              0.0000
 XXXZ=             -1.0572 YYYX=              0.0000 YYYZ=              0.0000 ZZZX=              0.0000
 ZZZY=              0.0000 XXYY=             -9.9161 XXZZ=            -19.7754 YYZZ=            -19.7754
 XXYZ=              0.0000 YYXZ=              1.0572 ZZXY=              0.0000
 N-N= 4.200087617831D+01 E-N=-2.673093744029D+02  KE= 7.860626716266D+01
 Symmetry A    KE= 4.061401406543D+01
 Symmetry B    KE= 3.799225309723D+01
 No NMR shielding tensors so no spin-rotation constants.
 Leave Link  601 at Wed Mar  4 21:43:41 2015, MaxMem=    33554432 cpu:         0.2
 (Enter /usr/local/research/Gaussian09/g09-revD.01/g09/l701.exe)
 Compute integral first derivatives.
 ... and contract with generalized density number  0.
   6 Symmetry operations used in ECPInt.
 ECPInt:  NShTT=     465 NPrTT=    1529 LenC2=     466 LenP2D=    1445.
 LDataN:  DoStor=T MaxTD1= 5 Len=  102
 Leave Link  701 at Wed Mar  4 21:43:41 2015, MaxMem=    33554432 cpu:         0.3
 (Enter /usr/local/research/Gaussian09/g09-revD.01/g09/l702.exe)
 L702 exits ... SP integral derivatives will be done elsewhere.
 Leave Link  702 at Wed Mar  4 21:43:42 2015, MaxMem=    33554432 cpu:         0.0
 (Enter /usr/local/research/Gaussian09/g09-revD.01/g09/l703.exe)
 Compute integral first derivatives, UseDBF=F ICtDFT=           0.
 Integral derivatives from FoFJK, PRISM(SPDF).
 Calling FoFJK, ICntrl=      2127 FMM=F ISym2X=1 I1Cent= 0 IOpClX= 0 NMat=1 NMatS=1 NMatT=0.
 FoFJK:  IHMeth= 1 ICntrl=    2127 DoSepK=F KAlg= 0 I1Cent=   0 FoldK=F
 IRaf=         0 NMat=   1 IRICut=       1 DoRegI=T DoRafI=F ISym2E= 1.
 FoFCou: FMM=F IPFlag=           0 FMFlag=      100000 FMFlg1=         800
         NFxFlg=           0 DoJE=F BraDBF=F KetDBF=F FulRan=T
         wScrn=  0.000000 ICntrl=    2127 IOpCl=  0 I1Cent=           0 NGrid=           0
         NMat0=    1 NMatS0=      1 NMatT0=    0 NMatD0=    1 NMtDS0=    0 NMtDT0=    0
 Petite list used in FoFCou.
 Leave Link  703 at Wed Mar  4 21:43:42 2015, MaxMem=    33554432 cpu:         0.8
 (Enter /usr/local/research/Gaussian09/g09-revD.01/g09/l716.exe)
 Dipole        =-8.91440200D-16-9.98330302D-16 4.44089210D-16
 ***** Axes restored to original set *****
 -------------------------------------------------------------------
 Center     Atomic                   Forces (Hartrees/Bohr)
 Number     Number              X              Y              Z
 -------------------------------------------------------------------
      1        6           0.000000019    0.000000027    0.000000046
      2        1           0.000000007    0.000000006    0.000000005
      3        1          -0.000000002    0.000000007    0.000000008
      4        1           0.000000003   -0.000000001    0.000000010
      5        6          -0.000000019   -0.000000027   -0.000000046
      6        1          -0.000000003   -0.000000009   -0.000000005
      7        1           0.000000002   -0.000000003   -0.000000010
      8        1          -0.000000007   -0.000000001   -0.000000008
 -------------------------------------------------------------------
 Cartesian Forces:  Max     0.000000046 RMS     0.000000017
 Leave Link  716 at Wed Mar  4 21:43:42 2015, MaxMem=    33554432 cpu:         0.1
 (Enter /usr/local/research/Gaussian09/g09-revD.01/g09/l103.exe)

 GradGradGradGradGradGradGradGradGradGradGradGradGradGradGradGradGradGrad
 Berny optimization.
 FormGI is forming the generalized inverse of G from B-inverse, IUseBI=4.
 Internal  Forces:  Max     0.000000083 RMS     0.000000017
 Search for a local minimum.
 Step number   1 out of a maximum of   38
 All quantities printed in internal units (Hartrees-Bohrs-Radians)
 RMS Force = .16883D-07 SwitMx=.10000D-02 MixMth= 2
 Mixed Optimization -- En-DIIS/RFO-DIIS
 Second derivative matrix not updated -- first step.
 ITU=  0
     Eigenvalues ---    0.00400   0.05446   0.05446   0.05446   0.05446
     Eigenvalues ---    0.16000   0.16000   0.16000   0.16000   0.16000
     Eigenvalues ---    0.16000   0.29640   0.33417   0.33417   0.33417
     Eigenvalues ---    0.33417   0.33417   0.33417
 RFO step:  Lambda= 0.00000000D+00 EMin= 3.99989769D-03
 Linear search not attempted -- first point.
 Iteration  1 RMS(Cart)=  0.00000041 RMS(Int)=  0.00000000
 ITry= 1 IFail=0 DXMaxC= 8.54D-07 DCOld= 1.00D+10 DXMaxT= 3.00D-01 DXLimC= 3.00D+00 Rises=F
 ClnCor:  largest displacement from symmetrization is 1.35D-13 for atom     6.
 Variable       Old X    -DE/DX   Delta X   Delta X   Delta X     New X
                                 (Linear)    (Quad)   (Total)
    R1        2.08325   0.00000   0.00000   0.00000   0.00000   2.08325
    R2        2.08325   0.00000   0.00000   0.00000   0.00000   2.08325
    R3        2.08325   0.00000   0.00000   0.00000   0.00000   2.08325
    R4        2.88687   0.00000   0.00000   0.00000   0.00000   2.88687
    R5        2.08325   0.00000   0.00000   0.00000   0.00000   2.08325
    R6        2.08325   0.00000   0.00000   0.00000   0.00000   2.08325
    R7        2.08325   0.00000   0.00000   0.00000   0.00000   2.08325
    A1        1.87298   0.00000   0.00000   0.00000   0.00000   1.87298
    A2        1.87298   0.00000   0.00000   0.00000   0.00000   1.87298
    A3        1.94693   0.00000   0.00000   0.00000   0.00000   1.94693
    A4        1.87298   0.00000   0.00000   0.00000   0.00000   1.87298
    A5        1.94693   0.00000   0.00000   0.00000   0.00000   1.94693
    A6        1.94693   0.00000   0.00000   0.00000   0.00000   1.94693
    A7        1.94693   0.00000   0.00000   0.00000   0.00000   1.94693
    A8        1.94693   0.00000   0.00000   0.00000   0.00000   1.94693
    A9        1.94693   0.00000   0.00000   0.00000   0.00000   1.94693
   A10        1.87298   0.00000   0.00000   0.00000   0.00000   1.87298
   A11        1.87298   0.00000   0.00000   0.00000   0.00000   1.87298
   A12        1.87298   0.00000   0.00000   0.00000   0.00000   1.87298
    D1        1.04752   0.00000   0.00000   0.00000   0.00000   1.04752
    D2       -3.14127   0.00000   0.00000   0.00000   0.00000  -3.14127
    D3       -1.04688   0.00000   0.00000   0.00000   0.00000  -1.04688
    D4       -1.04688   0.00000   0.00000   0.00000   0.00000  -1.04688
    D5        1.04752   0.00000   0.00000   0.00000   0.00000   1.04752
    D6       -3.14127   0.00000   0.00000   0.00000   0.00000  -3.14127
    D7       -3.14127   0.00000   0.00000   0.00000   0.00000  -3.14127
    D8       -1.04688   0.00000   0.00000   0.00000   0.00000  -1.04688
    D9        1.04752   0.00000   0.00000   0.00000   0.00000   1.04752
         Item               Value     Threshold  Converged?
 Maximum Force            0.000000     0.000002     YES
 RMS     Force            0.000000     0.000001     YES
 Maximum Displacement     0.000001     0.000006     YES
 RMS     Displacement     0.000000     0.000004     YES
 Predicted change in Energy=-2.827484D-14
 Optimization completed.
    -- Stationary point found.
                           ----------------------------
                           !   Optimized Parameters   !
                           ! (Angstroms and Degrees)  !
 --------------------------                            --------------------------
 ! Name  Definition              Value          Derivative Info.                !
 --------------------------------------------------------------------------------
 ! R1    R(1,2)                  1.1024         -DE/DX =    0.0                 !
 ! R2    R(1,3)                  1.1024         -DE/DX =    0.0                 !
 ! R3    R(1,4)                  1.1024         -DE/DX =    0.0                 !
 ! R4    R(1,5)                  1.5277         -DE/DX =    0.0                 !
 ! R5    R(5,6)                  1.1024         -DE/DX =    0.0                 !
 ! R6    R(5,7)                  1.1024         -DE/DX =    0.0                 !
 ! R7    R(5,8)                  1.1024         -DE/DX =    0.0                 !
 ! A1    A(2,1,3)              107.3138         -DE/DX =    0.0                 !
 ! A2    A(2,1,4)              107.3138         -DE/DX =    0.0                 !
 ! A3    A(2,1,5)              111.5509         -DE/DX =    0.0                 !
 ! A4    A(3,1,4)              107.3138         -DE/DX =    0.0                 !
 ! A5    A(3,1,5)              111.5509         -DE/DX =    0.0                 !
 ! A6    A(4,1,5)              111.5509         -DE/DX =    0.0                 !
 ! A7    A(1,5,6)              111.5509         -DE/DX =    0.0                 !
 ! A8    A(1,5,7)              111.5509         -DE/DX =    0.0                 !
 ! A9    A(1,5,8)              111.5509         -DE/DX =    0.0                 !
 ! A10   A(6,5,7)              107.3138         -DE/DX =    0.0                 !
 ! A11   A(6,5,8)              107.3138         -DE/DX =    0.0                 !
 ! A12   A(7,5,8)              107.3138         -DE/DX =    0.0                 !
 ! D1    D(2,1,5,6)             60.0184         -DE/DX =    0.0                 !
 ! D2    D(2,1,5,7)           -179.9816         -DE/DX =    0.0                 !
 ! D3    D(2,1,5,8)            -59.9816         -DE/DX =    0.0                 !
 ! D4    D(3,1,5,6)            -59.9816         -DE/DX =    0.0                 !
 ! D5    D(3,1,5,7)             60.0184         -DE/DX =    0.0                 !
 ! D6    D(3,1,5,8)           -179.9816         -DE/DX =    0.0                 !
 ! D7    D(4,1,5,6)           -179.9816         -DE/DX =    0.0                 !
 ! D8    D(4,1,5,7)            -59.9816         -DE/DX =    0.0                 !
 ! D9    D(4,1,5,8)             60.0184         -DE/DX =    0.0                 !
 --------------------------------------------------------------------------------
 Lowest energy point so far.  Saving SCF results.
 GradGradGradGradGradGradGradGradGradGradGradGradGradGradGradGradGradGrad

 Largest change from initial coordinates is atom    6       0.000 Angstoms.
 Leave Link  103 at Wed Mar  4 21:43:42 2015, MaxMem=    33554432 cpu:         0.0
 (Enter /usr/local/research/Gaussian09/g09-revD.01/g09/l202.exe)
                          Input orientation:                          
 ---------------------------------------------------------------------
 Center     Atomic      Atomic             Coordinates (Angstroms)
 Number     Number       Type             X           Y           Z
 ---------------------------------------------------------------------
      1          6           0       -0.332800   -0.096027    0.005036
      2          1           0        0.015341   -1.141451   -0.029479
      3          1           0        0.015790    0.396484   -0.917581
      4          1           0       -1.434482   -0.115788   -0.029742
      5          6           0        0.176431    0.624114    1.252369
      6          1           0        1.278113    0.644160    1.286983
      7          1           0       -0.171978    1.669443    1.287048
      8          1           0       -0.171890    0.131413    2.174986
 ---------------------------------------------------------------------
                    Distance matrix (angstroms):
                    1          2          3          4          5
     1  C    0.000000
     2  H    1.102408   0.000000
     3  H    1.102408   1.775942   0.000000
     4  H    1.102408   1.775942   1.775942   0.000000
     5  C    1.527665   2.187763   2.187763   2.187763   0.000000
     6  H    2.187763   2.552660   2.552432   3.109576   1.102408
     7  H    2.187763   3.109576   2.552660   2.552432   1.102408
     8  H    2.187763   2.552432   3.109576   2.552660   1.102408
                    6          7          8
     6  H    0.000000
     7  H    1.775942   0.000000
     8  H    1.775942   1.775942   0.000000
 Stoichiometry    C2H6
 Framework group  D3[C3(C.C),X(H6)]
 Deg. of freedom     4
 Full point group                 D3      NOp   6
 RotChk:  IX=0 Diff= 1.74D-15
 Largest Abelian subgroup         C2      NOp   2
 Largest concise Abelian subgroup C2      NOp   2
                         Standard orientation:                         
 ---------------------------------------------------------------------
 Center     Atomic      Atomic             Coordinates (Angstroms)
 Number     Number       Type             X           Y           Z
 ---------------------------------------------------------------------
      1          6           0        0.000000    0.000000    0.763833
      2          1           0        0.512528    0.888053    1.168778
      3          1           0        0.512813   -0.887889    1.168778
      4          1           0       -1.025341   -0.000165    1.168778
      5          6           0        0.000000    0.000000   -0.763833
      6          1           0        1.025341   -0.000165   -1.168778
      7          1           0       -0.512813   -0.887889   -1.168778
      8          1           0       -0.512528    0.888053   -1.168778
 ---------------------------------------------------------------------
 Rotational constants (GHZ):     79.4958287     19.8642745     19.8642745
 Leave Link  202 at Wed Mar  4 21:43:42 2015, MaxMem=    33554432 cpu:         0.0
 (Enter /usr/local/research/Gaussian09/g09-revD.01/g09/l9999.exe)
 1\1\GINC-HEISENBERG\FOpt\RB3LYP\def2SVP\C2H6\LEIN\04-Mar-2015\0\\#p op
 t=verytight freq b3lyp def2svp guess=read geom=allcheck\\-- ethane sta
 ggered --\\0,1\C,-0.3327995515,-0.0960272384,0.0050356022\H,0.01534070
 35,-1.1414513337,-0.0294789414\H,0.0157904635,0.3964839531,-0.91758141
 34\H,-1.4344820919,-0.115788162,-0.0297424952\C,0.1764309227,0.6241143
 34,1.25236933\H,1.2781134966,0.6441601786,1.2869829161\H,-0.1719779797
 ,1.6694434836,1.2870483666\H,-0.1718904786,0.1314131671,2.174986364\\V
 ersion=EM64L-G09RevD.01\State=1-A1\HF=-79.7716336\RMSD=1.509e-09\RMSF=
 1.711e-08\Dipole=0.,0.,0.\Quadrupole=0.0917338,0.0458694,-0.1376032,-0
 .0648672,-0.1123544,-0.1588889\PG=D03 [C3(C1.C1),X(H6)]\\@


 Some scientists claim that hydrogen, because it is so
 plentiful, is the basic building block of the universe. 
 I dispute that. I say that stupidity is far more
 abundant than hydrogen, and THAT is the basic building 
 block of the universe.
                   --Frank Zappa
 Leave Link 9999 at Wed Mar  4 21:43:43 2015, MaxMem=    33554432 cpu:         0.1
 Job cpu time:       0 days  0 hours  0 minutes  3.6 seconds.
 File lengths (MBytes):  RWF=      5 Int=      0 D2E=      0 Chk=      1 Scr=      1
 Normal termination of Gaussian 09 at Wed Mar  4 21:43:43 2015.
 (Enter /usr/local/research/Gaussian09/g09-revD.01/g09/l1.exe)
 Link1:  Proceeding to internal job step number  2.
 -------------------------------------------------------------------
 #P Geom=AllCheck Guess=TCheck SCRF=Check GenChk RB3LYP/def2SVP Freq
 -------------------------------------------------------------------
 1/7=1,10=4,29=7,30=1,38=1,40=1/1,3;
 2/12=2,40=1/2;
 3/5=43,7=101,11=2,14=-4,16=1,25=1,30=1,70=2,71=2,74=-5,116=1,140=1/1,2,3;
 4/5=101/1;
 5/5=2,98=1/2;
 8/6=4,10=90,11=11/1;
 11/6=1,8=1,9=11,15=111,16=1/1,2,10;
 10/6=1/2;
 6/7=2,8=2,9=2,10=2,18=1,28=1/1;
 7/8=1,10=1,25=1/1,2,3,16;
 1/7=1,10=4,30=1/3;
 99//99;
 Leave Link    1 at Wed Mar  4 21:43:43 2015, MaxMem=    33554432 cpu:         0.0
 (Enter /usr/local/research/Gaussian09/g09-revD.01/g09/l101.exe)
 Structure from the checkpoint file:  "ethane.chk"
 ----------------------
 -- ethane staggered --
 ----------------------
 Charge =  0 Multiplicity = 1
 Redundant internal coordinates found in file.
 C,0,-0.3327995515,-0.0960272384,0.0050356022
 H,0,0.0153407035,-1.1414513337,-0.0294789414
 H,0,0.0157904635,0.3964839531,-0.9175814134
 H,0,-1.4344820919,-0.115788162,-0.0297424952
 C,0,0.1764309227,0.624114334,1.25236933
 H,0,1.2781134966,0.6441601786,1.2869829161
 H,0,-0.1719779797,1.6694434836,1.2870483666
 H,0,-0.1718904786,0.1314131671,2.174986364
 Recover connectivity data from disk.
 NAtoms=      8 NQM=        8 NQMF=       0 NMMI=      0 NMMIF=      0
                NMic=       0 NMicF=      0.
                    Isotopes and Nuclear Properties:
 (Nuclear quadrupole moments (NQMom) in fm**2, nuclear magnetic moments (NMagM)
  in nuclear magnetons)

  Atom         1           2           3           4           5           6           7           8
 IAtWgt=          12           1           1           1          12           1           1           1
 AtmWgt=  12.0000000   1.0078250   1.0078250   1.0078250  12.0000000   1.0078250   1.0078250   1.0078250
 NucSpn=           0           1           1           1           0           1           1           1
 AtZEff=  -3.6000000  -1.0000000  -1.0000000  -1.0000000  -3.6000000  -1.0000000  -1.0000000  -1.0000000
 NQMom=    0.0000000   0.0000000   0.0000000   0.0000000   0.0000000   0.0000000   0.0000000   0.0000000
 NMagM=    0.0000000   2.7928460   2.7928460   2.7928460   0.0000000   2.7928460   2.7928460   2.7928460
 AtZNuc=   6.0000000   1.0000000   1.0000000   1.0000000   6.0000000   1.0000000   1.0000000   1.0000000
 Leave Link  101 at Wed Mar  4 21:43:43 2015, MaxMem=    33554432 cpu:         0.2
 (Enter /usr/local/research/Gaussian09/g09-revD.01/g09/l103.exe)

 GradGradGradGradGradGradGradGradGradGradGradGradGradGradGradGradGradGrad
 Berny optimization.
 Initialization pass.
                           ----------------------------
                           !    Initial Parameters    !
                           ! (Angstroms and Degrees)  !
 --------------------------                            --------------------------
 ! Name  Definition              Value          Derivative Info.                !
 --------------------------------------------------------------------------------
 ! R1    R(1,2)                  1.1024         calculate D2E/DX2 analytically  !
 ! R2    R(1,3)                  1.1024         calculate D2E/DX2 analytically  !
 ! R3    R(1,4)                  1.1024         calculate D2E/DX2 analytically  !
 ! R4    R(1,5)                  1.5277         calculate D2E/DX2 analytically  !
 ! R5    R(5,6)                  1.1024         calculate D2E/DX2 analytically  !
 ! R6    R(5,7)                  1.1024         calculate D2E/DX2 analytically  !
 ! R7    R(5,8)                  1.1024         calculate D2E/DX2 analytically  !
 ! A1    A(2,1,3)              107.3138         calculate D2E/DX2 analytically  !
 ! A2    A(2,1,4)              107.3138         calculate D2E/DX2 analytically  !
 ! A3    A(2,1,5)              111.5509         calculate D2E/DX2 analytically  !
 ! A4    A(3,1,4)              107.3138         calculate D2E/DX2 analytically  !
 ! A5    A(3,1,5)              111.5509         calculate D2E/DX2 analytically  !
 ! A6    A(4,1,5)              111.5509         calculate D2E/DX2 analytically  !
 ! A7    A(1,5,6)              111.5509         calculate D2E/DX2 analytically  !
 ! A8    A(1,5,7)              111.5509         calculate D2E/DX2 analytically  !
 ! A9    A(1,5,8)              111.5509         calculate D2E/DX2 analytically  !
 ! A10   A(6,5,7)              107.3138         calculate D2E/DX2 analytically  !
 ! A11   A(6,5,8)              107.3138         calculate D2E/DX2 analytically  !
 ! A12   A(7,5,8)              107.3138         calculate D2E/DX2 analytically  !
 ! D1    D(2,1,5,6)             60.0184         calculate D2E/DX2 analytically  !
 ! D2    D(2,1,5,7)           -179.9816         calculate D2E/DX2 analytically  !
 ! D3    D(2,1,5,8)            -59.9816         calculate D2E/DX2 analytically  !
 ! D4    D(3,1,5,6)            -59.9816         calculate D2E/DX2 analytically  !
 ! D5    D(3,1,5,7)             60.0184         calculate D2E/DX2 analytically  !
 ! D6    D(3,1,5,8)           -179.9816         calculate D2E/DX2 analytically  !
 ! D7    D(4,1,5,6)           -179.9816         calculate D2E/DX2 analytically  !
 ! D8    D(4,1,5,7)            -59.9816         calculate D2E/DX2 analytically  !
 ! D9    D(4,1,5,8)             60.0184         calculate D2E/DX2 analytically  !
 --------------------------------------------------------------------------------
 Trust Radius=3.00D-01 FncErr=1.00D-07 GrdErr=1.00D-07
 Number of steps in this run=      2 maximum allowed number of steps=      2.
 GradGradGradGradGradGradGradGradGradGradGradGradGradGradGradGradGradGrad

 Leave Link  103 at Wed Mar  4 21:43:43 2015, MaxMem=    33554432 cpu:         0.0
 (Enter /usr/local/research/Gaussian09/g09-revD.01/g09/l202.exe)
                          Input orientation:                          
 ---------------------------------------------------------------------
 Center     Atomic      Atomic             Coordinates (Angstroms)
 Number     Number       Type             X           Y           Z
 ---------------------------------------------------------------------
      1          6           0       -0.332800   -0.096027    0.005036
      2          1           0        0.015341   -1.141451   -0.029479
      3          1           0        0.015790    0.396484   -0.917581
      4          1           0       -1.434482   -0.115788   -0.029742
      5          6           0        0.176431    0.624114    1.252369
      6          1           0        1.278113    0.644160    1.286983
      7          1           0       -0.171978    1.669443    1.287048
      8          1           0       -0.171890    0.131413    2.174986
 ---------------------------------------------------------------------
                    Distance matrix (angstroms):
                    1          2          3          4          5
     1  C    0.000000
     2  H    1.102408   0.000000
     3  H    1.102408   1.775942   0.000000
     4  H    1.102408   1.775942   1.775942   0.000000
     5  C    1.527665   2.187763   2.187763   2.187763   0.000000
     6  H    2.187763   2.552660   2.552432   3.109576   1.102408
     7  H    2.187763   3.109576   2.552660   2.552432   1.102408
     8  H    2.187763   2.552432   3.109576   2.552660   1.102408
                    6          7          8
     6  H    0.000000
     7  H    1.775942   0.000000
     8  H    1.775942   1.775942   0.000000
 Stoichiometry    C2H6
 Framework group  D3[C3(C.C),X(H6)]
 Deg. of freedom     4
 Full point group                 D3      NOp   6
 RotChk:  IX=0 Diff= 1.20D-15
 Largest Abelian subgroup         C2      NOp   2
 Largest concise Abelian subgroup C2      NOp   2
                         Standard orientation:                         
 ---------------------------------------------------------------------
 Center     Atomic      Atomic             Coordinates (Angstroms)
 Number     Number       Type             X           Y           Z
 ---------------------------------------------------------------------
      1          6           0        0.000000    0.000000    0.763833
      2          1           0        0.512528    0.888053    1.168778
      3          1           0        0.512813   -0.887889    1.168778
      4          1           0       -1.025341   -0.000165    1.168778
      5          6           0        0.000000    0.000000   -0.763833
      6          1           0        1.025341   -0.000165   -1.168778
      7          1           0       -0.512813   -0.887889   -1.168778
      8          1           0       -0.512528    0.888053   -1.168778
 ---------------------------------------------------------------------
 Rotational constants (GHZ):     79.4958287     19.8642745     19.8642745
 Leave Link  202 at Wed Mar  4 21:43:43 2015, MaxMem=    33554432 cpu:         0.0
 (Enter /usr/local/research/Gaussian09/g09-revD.01/g09/l301.exe)
 Standard basis: def2SVP (5D, 7F)
 Ernie: Thresh=  0.10000D-02 Tol=  0.10000D-05 Strict=F.
 There are    30 symmetry adapted cartesian basis functions of A   symmetry.
 There are    30 symmetry adapted cartesian basis functions of B   symmetry.
 There are    29 symmetry adapted basis functions of A   symmetry.
 There are    29 symmetry adapted basis functions of B   symmetry.
    58 basis functions,    92 primitive gaussians,    60 cartesian basis functions
     9 alpha electrons        9 beta electrons
       nuclear repulsion energy        42.0008761783 Hartrees.
 IExCor=  402 DFT=T Ex+Corr=B3LYP ExCW=0 ScaHFX=  0.200000
 ScaDFX=  0.800000  0.720000  1.000000  0.810000 ScalE2=  1.000000  1.000000
 IRadAn=      0 IRanWt=     -1 IRanGd=            0 ICorTp=0 IEmpDi=  4
 NAtoms=    8 NActive=    8 NUniq=    2 SFac= 4.00D+00 NAtFMM=   60 NAOKFM=F Big=F
 Integral buffers will be    131072 words long.
 Raffenetti 2 integral format.
 Two-electron integral symmetry is turned on.
 Leave Link  301 at Wed Mar  4 21:43:43 2015, MaxMem=    33554432 cpu:         0.2
 (Enter /usr/local/research/Gaussian09/g09-revD.01/g09/l302.exe)
 NPDir=0 NMtPBC=     1 NCelOv=     1 NCel=       1 NClECP=     1 NCelD=      1
         NCelK=      1 NCelE2=     1 NClLst=     1 CellRange=     0.0.
 One-electron integrals computed using PRISM.
 One-electron integral symmetry used in STVInt
   6 Symmetry operations used in ECPInt.
 ECPInt:  NShTT=     465 NPrTT=    1529 LenC2=     466 LenP2D=    1445.
 LDataN:  DoStor=T MaxTD1= 4 Len=   56
 NBasis=    58 RedAO= T EigKep=  3.21D-03  NBF=    29    29
 NBsUse=    58 1.00D-06 EigRej= -1.00D+00 NBFU=    29    29
 Precomputing XC quadrature grid using
 IXCGrd= 4 IRadAn=           0 IRanWt=          -1 IRanGd=           0 AccXCQ= 0.00D+00.
 Generated NRdTot=       0 NPtTot=           0 NUsed=           0 NTot=          32
 NSgBfM=    60    60    60    60    60 MxSgAt=     8 MxSgA2=     8.
 Leave Link  302 at Wed Mar  4 21:43:43 2015, MaxMem=    33554432 cpu:         0.4
 (Enter /usr/local/research/Gaussian09/g09-revD.01/g09/l303.exe)
 DipDrv:  MaxL=1.
 Leave Link  303 at Wed Mar  4 21:43:44 2015, MaxMem=    33554432 cpu:         0.0
 (Enter /usr/local/research/Gaussian09/g09-revD.01/g09/l401.exe)
 Initial guess from the checkpoint file:  "ethane.chk"
 B after Tr=     0.000000    0.000000    0.000000
         Rot=    1.000000    0.000000    0.000000    0.000000 Ang=   0.00 deg.
 Guess basis will be translated and rotated to current coordinates.
 JPrj=2 DoOrth=T DoCkMO=T.
 Initial guess orbital symmetries:
       Occupied  (A1) (A2) (A1) (A2) (E) (E) (A1) (E) (E)
       Virtual   (A1) (A2) (E) (E) (E) (E) (A2) (E) (E) (A1) (E)
                 (E) (A2) (A1) (E) (E) (A2) (E) (E) (A1) (A2) (E)
                 (E) (E) (E) (A1) (A2) (A1) (E) (E) (E) (E) (E)
                 (E) (A2) (E) (E) (A1) (E) (E) (A2) (E) (E) (A1)
                 (A2) (E) (E) (E) (E)
 The electronic state of the initial guess is 1-A1.
 Leave Link  401 at Wed Mar  4 21:43:44 2015, MaxMem=    33554432 cpu:         0.2
 (Enter /usr/local/research/Gaussian09/g09-revD.01/g09/l502.exe)
 Closed shell SCF:
 Using DIIS extrapolation, IDIIS=  1040.
 Integral symmetry usage will be decided dynamically.
 Keep R1 ints in memory in symmetry-blocked form, NReq=2380384.
 IVT=       30386 IEndB=       30386 NGot=    33554432 MDV=    32787273
 LenX=    32787273 LenY=    32783232
 Requested convergence on RMS density matrix=1.00D-08 within 128 cycles.
 Requested convergence on MAX density matrix=1.00D-06.
 Requested convergence on             energy=1.00D-06.
 No special actions if energy rises.
 FoFCou: FMM=F IPFlag=           0 FMFlag=           0 FMFlg1=           0
         NFxFlg=           0 DoJE=F BraDBF=F KetDBF=F FulRan=T
         wScrn=  0.000000 ICntrl=     600 IOpCl=  0 I1Cent=           0 NGrid=           0
         NMat0=    1 NMatS0=   1711 NMatT0=    0 NMatD0=    1 NMtDS0=    0 NMtDT0=    0
 Petite list used in FoFCou.

 Cycle   1  Pass 1  IDiag  1:
 E= -79.7716335811023    
 DIIS: error= 8.43D-09 at cycle   1 NSaved=   1.
 NSaved= 1 IEnMin= 1 EnMin= -79.7716335811023     IErMin= 1 ErrMin= 8.43D-09
 ErrMax= 8.43D-09  0.00D+00 EMaxC= 1.00D-01 BMatC= 3.07D-15 BMatP= 3.07D-15
 IDIUse=1 WtCom= 1.00D+00 WtEn= 0.00D+00
 Coeff-Com:  0.100D+01
 Coeff:      0.100D+01
 Gap=     0.404 Goal=   None    Shift=    0.000
 RMSDP=1.87D-09 MaxDP=2.66D-08              OVMax= 3.08D-08

 SCF Done:  E(RB3LYP) =  -79.7716335811     A.U. after    1 cycles
            NFock=  1  Conv=0.19D-08     -V/T= 2.0148
 KE= 7.860626778607D+01 PE=-2.673093750263D+02 EE= 6.693059748080D+01
 Leave Link  502 at Wed Mar  4 21:43:45 2015, MaxMem=    33554432 cpu:         0.7
 (Enter /usr/local/research/Gaussian09/g09-revD.01/g09/l801.exe)
 DoSCS=F DFT=T ScalE2(SS,OS)=  1.000000  1.000000
 Range of M.O.s used for correlation:     1    58
 NBasis=    58 NAE=     9 NBE=     9 NFC=     0 NFV=     0
 NROrb=     58 NOA=     9 NOB=     9 NVA=    49 NVB=    49
 Leave Link  801 at Wed Mar  4 21:43:45 2015, MaxMem=    33554432 cpu:         0.1
 (Enter /usr/local/research/Gaussian09/g09-revD.01/g09/l1101.exe)
 Using compressed storage, NAtomX=     8.
 Will process      9 centers per pass.
   6 Symmetry operations used in ECPInt.
 ECPInt:  NShTT=     465 NPrTT=    1529 LenC2=     466 LenP2D=    1445.
 LDataN:  DoStor=T MaxTD1= 5 Len=  102
 Leave Link 1101 at Wed Mar  4 21:43:45 2015, MaxMem=    33554432 cpu:         0.3
 (Enter /usr/local/research/Gaussian09/g09-revD.01/g09/l1102.exe)
 Symmetrizing basis deriv contribution to polar:
 IMax=3 JMax=2 DiffMx= 0.00D+00
 Leave Link 1102 at Wed Mar  4 21:43:45 2015, MaxMem=    33554432 cpu:         0.1
 (Enter /usr/local/research/Gaussian09/g09-revD.01/g09/l1110.exe)
 Forming Gx(P) for the SCF density, NAtomX=     8.
 Integral derivatives from FoFJK, PRISM(SPDF).
 Do as many integral derivatives as possible in FoFJK.
 G2DrvN: MDV=      33554264.
 G2DrvN: will do     9 centers at a time, making    1 passes.
 Calling FoFCou, ICntrl=  3107 FMM=F I1Cent=   0 AccDes= 0.00D+00.
 FoFJK:  IHMeth= 1 ICntrl=    3107 DoSepK=F KAlg= 0 I1Cent=   0 FoldK=F
 IRaf=         0 NMat=   1 IRICut=       1 DoRegI=T DoRafI=F ISym2E= 1.
 FoFCou: FMM=F IPFlag=           0 FMFlag=      100000 FMFlg1=           0
         NFxFlg=           0 DoJE=F BraDBF=F KetDBF=F FulRan=T
         wScrn=  0.000000 ICntrl=    3107 IOpCl=  0 I1Cent=           0 NGrid=           0
         NMat0=    1 NMatS0=      1 NMatT0=    0 NMatD0=    1 NMtDS0=    0 NMtDT0=    0
 Petite list used in FoFCou.
 End of G2Drv F.D. properties file   721 does not exist.
 End of G2Drv F.D. properties file   722 does not exist.
 End of G2Drv F.D. properties file   788 does not exist.
 Leave Link 1110 at Wed Mar  4 21:43:50 2015, MaxMem=    33554432 cpu:         5.3
 (Enter /usr/local/research/Gaussian09/g09-revD.01/g09/l1002.exe)
 Minotr:  Closed shell wavefunction.
          IDoAtm=11111111
          Direct CPHF calculation.
          Differentiating once with respect to electric field.
                with respect to dipole field.
          Differentiating once with respect to nuclear coordinates.
          Using symmetry in CPHF.
          Requested convergence is 1.0D-08 RMS, and 1.0D-07 maximum.
          Secondary convergence is 1.0D-12 RMS, and 1.0D-12 maximum.
          NewPWx=T KeepS1=F KeepF1=F KeepIn=T MapXYZ=F SortEE=F KeepMc=T.
          MDV=      33554290 using IRadAn=       2.
 Generate precomputed XC quadrature information.
 Keep R1 ints in memory in symmetry-blocked form, NReq=2351108.
 FoFCou: FMM=F IPFlag=           0 FMFlag=           0 FMFlg1=           0
         NFxFlg=           0 DoJE=F BraDBF=F KetDBF=F FulRan=T
         wScrn=  0.000000 ICntrl=     600 IOpCl=  0 I1Cent=           0 NGrid=           0
         NMat0=    1 NMatS0=   1711 NMatT0=    0 NMatD0=    1 NMtDS0=    0 NMtDT0=    0
 Petite list used in FoFCou.
          Solving linear equations simultaneously, MaxMat=       0.
          There are     9 degrees of freedom in the 1st order CPHF.  IDoFFX=4 NUNeed=     9.
      9 vectors produced by pass  0 Test12= 4.90D-15 1.11D-08 XBig12= 1.29D+01 1.89D+00.
 AX will form     9 AO Fock derivatives at one time.
      9 vectors produced by pass  1 Test12= 4.90D-15 1.11D-08 XBig12= 5.89D-01 2.99D-01.
      9 vectors produced by pass  2 Test12= 4.90D-15 1.11D-08 XBig12= 7.81D-03 3.13D-02.
      9 vectors produced by pass  3 Test12= 4.90D-15 1.11D-08 XBig12= 6.01D-05 1.75D-03.
      9 vectors produced by pass  4 Test12= 4.90D-15 1.11D-08 XBig12= 1.55D-07 1.08D-04.
      8 vectors produced by pass  5 Test12= 4.90D-15 1.11D-08 XBig12= 1.56D-10 4.19D-06.
      3 vectors produced by pass  6 Test12= 4.90D-15 1.11D-08 XBig12= 1.53D-13 1.25D-07.
 InvSVY:  IOpt=1 It=  1 EMax= 4.44D-16
 Solved reduced A of dimension    56 with     9 vectors.
 FullF1:  Do perturbations    1 to     9.
 Isotropic polarizability for W=    0.000000       24.19 Bohr**3.
 End of Minotr F.D. properties file   721 does not exist.
 End of Minotr F.D. properties file   722 does not exist.
 End of Minotr F.D. properties file   788 does not exist.
 Leave Link 1002 at Wed Mar  4 21:44:01 2015, MaxMem=    33554432 cpu:        10.2
 (Enter /usr/local/research/Gaussian09/g09-revD.01/g09/l601.exe)
 Copying SCF densities to generalized density rwf, IOpCl= 0 IROHF=0.

 **********************************************************************

            Population analysis using the SCF density.

 **********************************************************************

 Orbital symmetries:
       Occupied  (A1) (A2) (A1) (A2) (E) (E) (A1) (E) (E)
       Virtual   (A1) (A2) (E) (E) (E) (E) (A2) (E) (E) (A1) (E)
                 (E) (A2) (A1) (E) (E) (A2) (E) (E) (A1) (A2) (E)
                 (E) (E) (E) (A1) (A2) (A1) (E) (E) (E) (E) (E)
                 (E) (A2) (E) (E) (A1) (E) (E) (A2) (E) (E) (A1)
                 (A2) (E) (E) (E) (E)
 The electronic state is 1-A1.
 Alpha  occ. eigenvalues --  -10.17853 -10.17851  -0.74295  -0.60645  -0.43167
 Alpha  occ. eigenvalues --   -0.43167  -0.37020  -0.34116  -0.34116
 Alpha virt. eigenvalues --    0.06294   0.10789   0.12336   0.12336   0.15593
 Alpha virt. eigenvalues --    0.15593   0.23407   0.41187   0.41187   0.42788
 Alpha virt. eigenvalues --    0.52305   0.52305   0.61121   0.64217   0.67149
 Alpha virt. eigenvalues --    0.67149   0.68287   0.69498   0.69498   0.76232
 Alpha virt. eigenvalues --    0.96553   1.10427   1.10427   1.36027   1.36027
 Alpha virt. eigenvalues --    1.53985   1.54426   1.72279   1.77260   1.77260
 Alpha virt. eigenvalues --    1.78303   1.78303   1.81719   1.81719   1.85714
 Alpha virt. eigenvalues --    2.02766   2.02766   2.22907   2.35825   2.35825
 Alpha virt. eigenvalues --    2.42966   2.54441   2.54441   2.62152   2.82302
 Alpha virt. eigenvalues --    2.93849   2.93849   3.00257   3.00257
          Condensed to atoms (all electrons):
               1          2          3          4          5          6
     1  C    4.490171   0.389798   0.389798   0.389798   0.452124  -0.022959
     2  H    0.389798   0.677980  -0.026284  -0.026284  -0.022959  -0.007157
     3  H    0.389798  -0.026284   0.677980  -0.026284  -0.022959  -0.007167
     4  H    0.389798  -0.026284  -0.026284   0.677980  -0.022959   0.007803
     5  C    0.452124  -0.022959  -0.022959  -0.022959   4.490171   0.389798
     6  H   -0.022959  -0.007157  -0.007167   0.007803   0.389798   0.677980
     7  H   -0.022959   0.007803  -0.007157  -0.007167   0.389798  -0.026284
     8  H   -0.022959  -0.007167   0.007803  -0.007157   0.389798  -0.026284
               7          8
     1  C   -0.022959  -0.022959
     2  H    0.007803  -0.007167
     3  H   -0.007157   0.007803
     4  H   -0.007167  -0.007157
     5  C    0.389798   0.389798
     6  H   -0.026284  -0.026284
     7  H    0.677980  -0.026284
     8  H   -0.026284   0.677980
 Mulliken charges:
               1
     1  C   -0.042810
     2  H    0.014270
     3  H    0.014270
     4  H    0.014270
     5  C   -0.042810
     6  H    0.014270
     7  H    0.014270
     8  H    0.014270
 Sum of Mulliken charges =   0.00000
 Mulliken charges with hydrogens summed into heavy atoms:
               1
     1  C    0.000000
     5  C    0.000000
 APT charges:
               1
     1  C    0.093271
     2  H   -0.031090
     3  H   -0.031090
     4  H   -0.031090
     5  C    0.093271
     6  H   -0.031090
     7  H   -0.031090
     8  H   -0.031090
 Sum of APT charges =   0.00000
 APT charges with hydrogens summed into heavy atoms:
               1
     1  C    0.000001
     5  C    0.000001
 Electronic spatial extent (au):  <R**2>=            110.4244
 Charge=              0.0000 electrons
 Dipole moment (field-independent basis, Debye):
    X=              0.0000    Y=              0.0000    Z=              0.0000  Tot=              0.0000
 Quadrupole moment (field-independent basis, Debye-Ang):
   XX=            -14.8914   YY=            -14.8914   ZZ=            -15.4466
   XY=              0.0000   XZ=              0.0000   YZ=              0.0000
 Traceless Quadrupole moment (field-independent basis, Debye-Ang):
   XX=              0.1851   YY=              0.1851   ZZ=             -0.3702
   XY=              0.0000   XZ=              0.0000   YZ=              0.0000
 Octapole moment (field-independent basis, Debye-Ang**2):
  XXX=              0.0000  YYY=              0.0004  ZZZ=              0.0000  XYY=              0.0000
  XXY=             -0.0004  XXZ=              0.0000  XZZ=              0.0000  YZZ=              0.0000
  YYZ=              0.0000  XYZ=              0.0000
 Hexadecapole moment (field-independent basis, Debye-Ang**3):
 XXXX=            -29.7482 YYYY=            -29.7482 ZZZZ=            -94.3375 XXXY=              0.0000
 XXXZ=             -1.0572 YYYX=              0.0000 YYYZ=              0.0000 ZZZX=              0.0000
 ZZZY=              0.0000 XXYY=             -9.9161 XXZZ=            -19.7754 YYZZ=            -19.7754
 XXYZ=              0.0000 YYXZ=              1.0572 ZZXY=              0.0000
 N-N= 4.200087617831D+01 E-N=-2.673093761143D+02  KE= 7.860626778607D+01
 Symmetry A    KE= 4.061401440551D+01
 Symmetry B    KE= 3.799225338056D+01
  Exact polarizability:  23.434   0.000  23.434   0.000   0.000  25.704
 Approx polarizability:  30.165   0.000  30.165   0.000   0.000  29.897
 No NMR shielding tensors so no spin-rotation constants.
 Leave Link  601 at Wed Mar  4 21:44:01 2015, MaxMem=    33554432 cpu:         0.2
 (Enter /usr/local/research/Gaussian09/g09-revD.01/g09/l701.exe)
 Compute integral second derivatives.
 ... and contract with generalized density number  0.
   6 Symmetry operations used in ECPInt.
 ECPInt:  NShTT=     465 NPrTT=    1529 LenC2=     466 LenP2D=    1445.
 LDataN:  DoStor=T MaxTD1= 6 Len=  172
 Leave Link  701 at Wed Mar  4 21:44:01 2015, MaxMem=    33554432 cpu:         0.3
 (Enter /usr/local/research/Gaussian09/g09-revD.01/g09/l702.exe)
 L702 exits ... SP integral derivatives will be done elsewhere.
 Leave Link  702 at Wed Mar  4 21:44:01 2015, MaxMem=    33554432 cpu:         0.1
 (Enter /usr/local/research/Gaussian09/g09-revD.01/g09/l703.exe)
 Compute integral second derivatives, UseDBF=F ICtDFT=           0.
 Integral derivatives from FoFJK, PRISM(SPDF).
 Calling FoFJK, ICntrl=    100127 FMM=F ISym2X=1 I1Cent= 0 IOpClX= 0 NMat=1 NMatS=1 NMatT=0.
 FoFJK:  IHMeth= 1 ICntrl=  100127 DoSepK=F KAlg= 0 I1Cent=   0 FoldK=F
 IRaf=         0 NMat=   1 IRICut=       1 DoRegI=T DoRafI=F ISym2E= 1.
 FoFCou: FMM=F IPFlag=           0 FMFlag=      100000 FMFlg1=         800
         NFxFlg=           0 DoJE=F BraDBF=F KetDBF=F FulRan=T
         wScrn=  0.000000 ICntrl=  100127 IOpCl=  0 I1Cent=           0 NGrid=           0
         NMat0=    1 NMatS0=      1 NMatT0=    0 NMatD0=    1 NMtDS0=    0 NMtDT0=    0
 Petite list used in FoFCou.
 Leave Link  703 at Wed Mar  4 21:44:08 2015, MaxMem=    33554432 cpu:         6.6
 (Enter /usr/local/research/Gaussian09/g09-revD.01/g09/l716.exe)
 Dipole        =-7.11778726D-17 1.67335763D-15-8.24210492D-15
 Polarizability= 2.34338691D+01 1.50980152D-09 2.34343343D+01
                 6.23832533D-05-3.74276455D-09 2.57042789D+01
 Full mass-weighted force constant matrix:
 Low frequencies ---  -22.6971  -22.6526   -4.9630    0.0178    0.0195    0.3733
 Low frequencies ---  317.2352  820.8864  820.8867
 Diagonal vibrational polarizability:
        0.4431690       0.4432287       0.1593395
 Harmonic frequencies (cm**-1), IR intensities (KM/Mole), Raman scattering
 activities (A**4/AMU), depolarization ratios for plane and unpolarized
 incident light, reduced masses (AMU), force constants (mDyne/A),
 and normal coordinates:
                      1                      2                      3
                     A1                      E                      E
 Frequencies --    317.2352               820.8864               820.8867
 Red. masses --      1.0078                 1.0586                 1.0586
 Frc consts  --      0.0598                 0.4203                 0.4203
 IR Inten    --      0.0000                 4.7660                 4.7677
  Atom  AN      X      Y      Z        X      Y      Z        X      Y      Z
     1   6     0.00   0.00   0.00    -0.05   0.00   0.00     0.00  -0.05   0.00
     2   1    -0.35   0.20   0.00     0.21  -0.03  -0.25    -0.03   0.17  -0.44
     3   1     0.35   0.20   0.00     0.21   0.03  -0.25     0.03   0.17   0.44
     4   1     0.00  -0.41   0.00     0.16   0.00   0.51     0.00   0.23   0.00
     5   6     0.00   0.00   0.00    -0.05   0.00   0.00     0.00  -0.05   0.00
     6   1     0.00  -0.41   0.00     0.16   0.00   0.51     0.00   0.23   0.00
     7   1    -0.35   0.20   0.00     0.21  -0.03  -0.25    -0.03   0.17  -0.44
     8   1     0.35   0.20   0.00     0.21   0.03  -0.25     0.03   0.17   0.44
                      4                      5                      6
                     A1                      E                      E
 Frequencies --   1011.0473              1204.2461              1204.2491
 Red. masses --      3.0130                 1.4770                 1.4770
 Frc consts  --      1.8147                 1.2620                 1.2620
 IR Inten    --      0.0000                 0.0000                 0.0000
  Atom  AN      X      Y      Z        X      Y      Z        X      Y      Z
     1   6     0.00   0.00   0.30     0.15   0.00   0.00     0.00   0.15   0.00
     2   1    -0.01  -0.02   0.37    -0.22   0.10   0.25     0.10  -0.11   0.43
     3   1    -0.01   0.02   0.37    -0.22  -0.10   0.25    -0.10  -0.11  -0.43
     4   1     0.02   0.00   0.37    -0.05   0.00  -0.49     0.00  -0.27   0.00
     5   6     0.00   0.00  -0.30    -0.15   0.00   0.00     0.00  -0.15   0.00
     6   1    -0.02   0.00  -0.37     0.05   0.00   0.49     0.00   0.27   0.00
     7   1     0.01   0.02  -0.37     0.22  -0.10  -0.25    -0.10   0.11  -0.43
     8   1     0.01  -0.02  -0.37     0.22   0.10  -0.25     0.10   0.11   0.43
                      7                      8                      9
                     A2                     A1                      E
 Frequencies --   1386.1141              1415.1647              1475.4578
 Red. masses --      1.1971                 1.2937                 1.0157
 Frc consts  --      1.3551                 1.5265                 1.3028
 IR Inten    --      0.0012                 0.0000                 0.0001
  Atom  AN      X      Y      Z        X      Y      Z        X      Y      Z
     1   6     0.00   0.00   0.09     0.00   0.00  -0.11     0.00   0.02   0.00
     2   1     0.08   0.15  -0.37    -0.09  -0.15   0.36     0.26  -0.03  -0.26
     3   1     0.08  -0.15  -0.37    -0.09   0.15   0.36    -0.26  -0.03   0.26
     4   1    -0.17   0.00  -0.37     0.18   0.00   0.36     0.00  -0.48   0.00
     5   6     0.00   0.00   0.09     0.00   0.00   0.11     0.00  -0.02   0.00
     6   1    -0.17   0.00  -0.37    -0.18   0.00  -0.36     0.00   0.48   0.00
     7   1     0.08   0.15  -0.37     0.09   0.15  -0.36    -0.26   0.03   0.26
     8   1     0.08  -0.15  -0.37     0.09  -0.15  -0.36     0.26   0.03  -0.26
                     10                     11                     12
                      E                      E                      E
 Frequencies --   1475.4584              1478.5580              1478.5594
 Red. masses --      1.0157                 1.0603                 1.0603
 Frc consts  --      1.3028                 1.3657                 1.3657
 IR Inten    --      0.0001                 7.7973                 7.7998
  Atom  AN      X      Y      Z        X      Y      Z        X      Y      Z
     1   6    -0.02   0.00   0.00     0.00  -0.05   0.00     0.05   0.00   0.00
     2   1     0.33  -0.26   0.15    -0.28   0.03   0.20    -0.36   0.28  -0.11
     3   1     0.33   0.26   0.15     0.28   0.04  -0.20    -0.35  -0.28  -0.11
     4   1    -0.12   0.00  -0.30     0.00   0.51   0.00     0.13   0.00   0.23
     5   6     0.02   0.00   0.00     0.00  -0.05   0.00     0.05   0.00   0.00
     6   1     0.12   0.00   0.30     0.00   0.51   0.00     0.13   0.00   0.23
     7   1    -0.33   0.26  -0.15    -0.28   0.04   0.20    -0.35   0.28  -0.11
     8   1    -0.33  -0.26  -0.15     0.28   0.03  -0.20    -0.36  -0.28  -0.11
                     13                     14                     15
                     A2                     A1                      E
 Frequencies --   3027.0336              3028.2041              3093.1981
 Red. masses --      1.0350                 1.0385                 1.1032
 Frc consts  --      5.5874                 5.6107                 6.2190
 IR Inten    --     54.2476                 0.0000                 0.0000
  Atom  AN      X      Y      Z        X      Y      Z        X      Y      Z
     1   6     0.00   0.00  -0.04     0.00   0.00   0.04    -0.07   0.00   0.00
     2   1     0.19   0.33   0.14    -0.19  -0.33  -0.14     0.12   0.24   0.10
     3   1     0.19  -0.33   0.14    -0.19   0.33  -0.14     0.12  -0.24   0.10
     4   1    -0.38   0.00   0.14     0.38   0.00  -0.14     0.54   0.00  -0.21
     5   6     0.00   0.00  -0.04     0.00   0.00  -0.04     0.07   0.00   0.00
     6   1    -0.38   0.00   0.14    -0.38   0.00   0.14    -0.54   0.00   0.21
     7   1     0.19   0.33   0.14     0.19   0.33   0.14    -0.12  -0.24  -0.10
     8   1     0.19  -0.33   0.14     0.19  -0.33   0.14    -0.12   0.24  -0.10
                     16                     17                     18
                      E                      E                      E
 Frequencies --   3093.1991              3114.5792              3114.5802
 Red. masses --      1.1032                 1.1038                 1.1038
 Frc consts  --      6.2190                 6.3084                 6.3084
 IR Inten    --      0.0000                56.5351                56.5267
  Atom  AN      X      Y      Z        X      Y      Z        X      Y      Z
     1   6     0.00  -0.07   0.00     0.00   0.07   0.00     0.07   0.00   0.00
     2   1     0.24   0.40   0.18    -0.24  -0.40  -0.18    -0.13  -0.24  -0.10
     3   1    -0.24   0.40  -0.18     0.24  -0.40   0.18    -0.13   0.24  -0.10
     4   1     0.00  -0.01   0.00     0.00   0.01   0.00    -0.54   0.00   0.21
     5   6     0.00   0.07   0.00     0.00   0.07   0.00     0.07   0.00   0.00
     6   1     0.00   0.01   0.00     0.00   0.01   0.00    -0.54   0.00   0.21
     7   1    -0.24  -0.40  -0.18    -0.24  -0.40  -0.18    -0.13  -0.24  -0.10
     8   1     0.24  -0.40   0.18     0.24  -0.40   0.18    -0.13   0.24  -0.10

 -------------------
 - Thermochemistry -
 -------------------
 Temperature   298.150 Kelvin.  Pressure   1.00000 Atm.
 Atom     1 has atomic number  6 and mass  12.00000
 Atom     2 has atomic number  1 and mass   1.00783
 Atom     3 has atomic number  1 and mass   1.00783
 Atom     4 has atomic number  1 and mass   1.00783
 Atom     5 has atomic number  6 and mass  12.00000
 Atom     6 has atomic number  1 and mass   1.00783
 Atom     7 has atomic number  1 and mass   1.00783
 Atom     8 has atomic number  1 and mass   1.00783
 Molecular mass:    30.04695 amu.
 Principal axes and moments of inertia in atomic units:
                           1         2         3
     Eigenvalues --    22.70234  90.85362  90.85362
           X            0.00000   0.36817   0.92976
           Y            0.00000   0.92976  -0.36817
           Z            1.00000   0.00000   0.00000
 This molecule is a prolate symmetric top.
 Rotational symmetry number  6.
 Rotational temperatures (Kelvin)      3.81519     0.95333     0.95333
 Rotational constants (GHZ):          79.49583    19.86427    19.86427
 Zero-point vibrational energy     194744.0 (Joules/Mol)
                                   46.54494 (Kcal/Mol)
 Warning -- explicit consideration of   1 degrees of freedom as
           vibrations may cause significant error
 Vibrational temperatures:    456.43  1181.07  1181.07  1454.67  1732.64
          (Kelvin)           1732.64  1994.31  2036.10  2122.85  2122.85
                             2127.31  2127.31  4355.22  4356.90  4450.42
                             4450.42  4481.18  4481.18
 
 Zero-point correction=                           0.074174 (Hartree/Particle)
 Thermal correction to Energy=                    0.077656
 Thermal correction to Enthalpy=                  0.078600
 Thermal correction to Gibbs Free Energy=         0.052751
 Sum of electronic and zero-point Energies=            -79.697460
 Sum of electronic and thermal Energies=               -79.693978
 Sum of electronic and thermal Enthalpies=             -79.693034
 Sum of electronic and thermal Free Energies=          -79.718883
 
                     E (Thermal)             CV                S
                      KCal/Mol        Cal/Mol-Kelvin    Cal/Mol-Kelvin
 Total                   48.730             10.143             54.404
 Electronic               0.000              0.000              0.000
 Translational            0.889              2.981             36.134
 Rotational               0.889              2.981             16.306
 Vibrational             46.952              4.181              1.965
 Vibration     1          0.704              1.641              1.324
                       Q            Log10(Q)             Ln(Q)
 Total Bot       0.545118D-24        -24.263509        -55.868794
 Total V=0       0.714704D+10          9.854126         22.689964
 Vib (Bot)       0.103101D-33        -33.986738        -78.257355
 Vib (Bot)    1  0.593541D+00         -0.226549         -0.521649
 Vib (V=0)       0.135175D+01          0.130898          0.301403
 Vib (V=0)    1  0.127607D+01          0.105876          0.243788
 Electronic      0.100000D+01          0.000000          0.000000
 Translational   0.647375D+07          6.811156         15.683266
 Rotational      0.816719D+03          2.912073          6.705295
 
                                                        -- ethane staggered --
                                                             IR Spectrum
 
     33 33                                                             11  11      1       1                                         
     10 00                                                             44  43      2       0       8                    3            
     19 22                                                             77  18      0       1       2                    1            
     53 87                                                             95  56      4       1       1                    7            
 
     X   X                                                             X                           X                                 
     X   X                                                             X                           X                                 
     X   X                                                             X                                                             
     X   X                                                                                                                           
     X   X                                                                                                                           
     X   X                                                                                                                           
     X   X                                                                                                                           
     X   X                                                                                                                           
     X   X                                                                                                                           
     X   X                                                                                                                           
     X                                                                                                                               
     X                                                                                                                               
     X                                                                                                                               
     X                                                                                                                               
     X                                                                                                                               
     X                                                                                                                               
     X                                                                                                                               
     X                                                                                                                               
     X                                                                                                                               
     X                                                                                                                               
 
 ***** Axes restored to original set *****
 -------------------------------------------------------------------
 Center     Atomic                   Forces (Hartrees/Bohr)
 Number     Number              X              Y              Z
 -------------------------------------------------------------------
      1        6           0.000000011    0.000000016    0.000000027
      2        1           0.000000011   -0.000000004    0.000000005
      3        1           0.000000002    0.000000013   -0.000000001
      4        1          -0.000000007    0.000000000    0.000000011
      5        6          -0.000000011   -0.000000016   -0.000000027
      6        1           0.000000007   -0.000000009   -0.000000005
      7        1          -0.000000002    0.000000007   -0.000000011
      8        1          -0.000000011   -0.000000006    0.000000001
 -------------------------------------------------------------------
 Cartesian Forces:  Max     0.000000027 RMS     0.000000012
 Force constants in Cartesian coordinates: 
                1             2             3             4             5 
      1  0.557552D+00
      2 -0.136545D-01  0.547896D+00
      3 -0.236505D-01 -0.334495D-01  0.509271D+00
      4 -0.750576D-01  0.821543D-01  0.166301D-02  0.759476D-01
      5  0.814771D-01 -0.283976D+00 -0.362296D-02 -0.879606D-01  0.305713D+00
      6  0.127386D-02 -0.252345D-02 -0.464123D-01  0.308186D-03  0.694265D-02
      7 -0.751087D-01 -0.396540D-01  0.720619D-01  0.314667D-02  0.464970D-02
      8 -0.396556D-01 -0.103092D+00  0.101824D+00 -0.108966D-01 -0.122695D-01
      9  0.712846D-01  0.100722D+00 -0.227245D+00 -0.909636D-03 -0.809616D-03
     10 -0.312189D+00 -0.225676D-02 -0.402782D-02 -0.859324D-02 -0.647864D-03
     11 -0.158499D-02 -0.468321D-01  0.367935D-03  0.300977D-01  0.180163D-02
     12 -0.285866D-02  0.367987D-03 -0.464254D-01  0.181349D-05  0.218478D-03
     13 -0.941424D-01 -0.205790D-01 -0.356481D-01  0.365302D-02  0.421725D-02
     14 -0.205824D-01 -0.108700D+00 -0.504110D-01 -0.122688D-01 -0.127119D-01
     15 -0.356462D-01 -0.504124D-01 -0.166912D+00  0.189196D-03  0.112599D-04
     16 -0.836458D-02 -0.300467D-04 -0.531065D-04  0.599722D-03 -0.400983D-03
     17 -0.165175D-01 -0.692402D-03  0.180973D-03 -0.266284D-03  0.364016D-03
     18 -0.286177D-01  0.180768D-03 -0.485525D-03  0.664074D-03  0.271840D-03
     19  0.365668D-02 -0.122754D-01  0.186709D-03  0.100828D-03 -0.142681D-02
     20  0.421896D-02 -0.127140D-01  0.101275D-04 -0.142622D-02  0.196890D-03
     21  0.970761D-02 -0.269171D-01 -0.483971D-03 -0.234955D-02 -0.281351D-02
     22  0.365545D-02  0.629716D-02 -0.105310D-01  0.202840D-03  0.918773D-04
     23  0.629897D-02  0.811081D-02 -0.148989D-01  0.566099D-03  0.882343D-03
     24  0.850900D-02  0.120319D-01 -0.213076D-01  0.432714D-03 -0.197821D-03
                6             7             8             9            10 
      6  0.491816D-01
      7 -0.988062D-02  0.760072D-01
      8  0.241540D-01  0.442689D-01  0.107244D+00
      9  0.119806D-02 -0.761148D-01 -0.107545D+00  0.247591D+00
     10  0.202130D-03 -0.860836D-02  0.504539D-03 -0.462965D-03  0.335471D+00
     11  0.814285D-04 -0.150380D-01 -0.522120D-03 -0.113263D-02  0.368054D-02
     12 -0.113320D-02  0.260655D-01 -0.127615D-02  0.120567D-02  0.650463D-02
     13  0.970496D-02  0.365911D-02  0.630041D-02  0.851180D-02 -0.836458D-02
     14 -0.269229D-01  0.629831D-02  0.810716D-02  0.120299D-01 -0.296349D-04
     15 -0.482505D-03 -0.105380D-01 -0.148939D-01 -0.213076D-01 -0.533444D-04
     16  0.350470D-04  0.600253D-03  0.232202D-03 -0.330732D-03  0.108278D-02
     17  0.716725D-03  0.706492D-03  0.485024D-03  0.342183D-03 -0.107920D-02
     18  0.109482D-02  0.109455D-03  0.788163D-03  0.979400D-03 -0.186976D-02
     19 -0.235004D-02  0.201789D-03  0.567555D-03  0.431556D-03  0.600064D-03
     20 -0.281404D-02  0.901462D-04  0.881992D-03 -0.197169D-03 -0.402590D-03
     21 -0.442631D-02  0.707273D-03  0.357631D-03  0.974776D-03  0.358287D-04
     22  0.706592D-03  0.100853D-03 -0.132164D-02 -0.241008D-02  0.599911D-03
     23  0.365845D-03 -0.132176D-02 -0.833679D-03 -0.340893D-02  0.230722D-03
     24  0.979493D-03 -0.241083D-02 -0.340840D-02 -0.339577D-02 -0.329731D-03
               11            12            13            14            15 
     11  0.461780D-01
[...]
     19 -0.860318D-02  0.300942D-01  0.681607D-05  0.759760D-01
     20 -0.651378D-03  0.181157D-02  0.217462D-03 -0.880119D-01  0.305673D+00
     21  0.204754D-03  0.770495D-04 -0.113320D-02  0.290166D-03  0.697388D-02
     22 -0.859842D-02 -0.150441D-01  0.260660D-01  0.314667D-02  0.465724D-02
     23  0.500506D-03 -0.526940D-03 -0.126881D-02 -0.108870D-01 -0.122747D-01
     24 -0.461232D-03 -0.112866D-02  0.120055D-02 -0.912806D-03 -0.812573D-03
               21            22            23            24 
     21  0.491930D-01
     22 -0.988736D-02  0.759787D-01
     23  0.241511D-01  0.442588D-01  0.107273D+00
     24  0.120319D-02 -0.760613D-01 -0.107583D+00  0.247591D+00
 FormGI is forming the generalized inverse of G from B-inverse, IUseBI=4.
 Force constants in internal coordinates: 
                1             2             3             4             5 
      1  0.335628D+00
      2  0.197455D-02  0.335628D+00
      3  0.197461D-02  0.197461D-02  0.335629D+00
      4  0.498789D-02  0.498789D-02  0.498744D-02  0.292885D+00
      5  0.562627D-03  0.563081D-03 -0.926090D-03  0.498744D-02  0.335629D+00
      6 -0.925549D-03  0.562546D-03  0.563081D-03  0.498789D-02  0.197461D-02
      7  0.562999D-03 -0.925549D-03  0.562627D-03  0.498789D-02  0.197461D-02
      8  0.527349D-02  0.527861D-02  0.377143D-03 -0.155667D-01  0.267875D-03
      9  0.527870D-02  0.377385D-03  0.527306D-02 -0.155670D-01 -0.105988D-02
     10 -0.308470D-03 -0.493595D-02 -0.493548D-02  0.144999D-01 -0.109384D-02
     11  0.377384D-03  0.527357D-02  0.527819D-02 -0.155670D-01 -0.105958D-02
     12 -0.493570D-02 -0.308470D-03 -0.493573D-02  0.144999D-01 -0.109363D-02
     13 -0.493621D-02 -0.493597D-02 -0.308071D-03  0.144997D-01  0.391214D-02
     14 -0.109353D-02 -0.109332D-02  0.391214D-02  0.144997D-01 -0.308071D-03
     15  0.391220D-02 -0.109336D-02 -0.109363D-02  0.144999D-01 -0.493573D-02
     16 -0.109315D-02  0.391220D-02 -0.109384D-02  0.144999D-01 -0.493548D-02
     17 -0.106023D-02  0.267649D-03 -0.105958D-02 -0.155670D-01  0.527819D-02
     18  0.267649D-03 -0.105993D-02 -0.105988D-02 -0.155670D-01  0.527306D-02
     19 -0.105993D-02 -0.106023D-02  0.267875D-03 -0.155667D-01  0.377143D-03
     20 -0.579949D-03  0.371391D-02 -0.313561D-02  0.000000D+00 -0.580118D-03
     21 -0.290214D-05  0.255918D-02 -0.255786D-02  0.000000D+00  0.255897D-02
     22  0.574782D-03  0.313634D-02 -0.371284D-02  0.000000D+00 -0.371284D-02
     23 -0.371280D-02  0.574699D-03  0.313620D-02  0.000000D+00  0.574869D-03
     24 -0.313575D-02 -0.580032D-03  0.371396D-02  0.000000D+00  0.371396D-02
     25 -0.255806D-02 -0.287469D-05  0.255897D-02  0.000000D+00 -0.255786D-02
     26  0.255919D-02 -0.255808D-02 -0.288837D-05  0.000000D+00 -0.288837D-05
     27  0.313624D-02 -0.371281D-02  0.574869D-03  0.000000D+00  0.313620D-02
     28  0.371392D-02 -0.313565D-02 -0.580118D-03  0.000000D+00 -0.313561D-02
                6             7             8             9            10 
      6  0.335628D+00
      7  0.197455D-02  0.335628D+00
      8 -0.106023D-02 -0.105993D-02  0.508065D-01
      9 -0.105993D-02  0.267649D-03  0.914891D-02  0.508066D-01
     10  0.391220D-02 -0.109315D-02 -0.392537D-01 -0.392608D-01  0.100481D+00
     11  0.267649D-03 -0.106023D-02  0.914891D-02  0.914898D-02  0.141466D-01
     12 -0.109336D-02  0.391220D-02 -0.392606D-01  0.141466D-01 -0.202628D-01
     13 -0.109332D-02 -0.109353D-02  0.141468D-01 -0.392535D-01 -0.202625D-01
     14 -0.493597D-02 -0.493621D-02  0.426581D-02 -0.379416D-02 -0.666995D-02
     15 -0.308470D-03 -0.493570D-02 -0.379431D-02 -0.378559D-02  0.164418D-01
     16 -0.493595D-02 -0.308470D-03 -0.378558D-02  0.426593D-02 -0.668507D-02
     17  0.527357D-02  0.377384D-03  0.312044D-03  0.293645D-02 -0.379431D-02
     18  0.377385D-03  0.527870D-02  0.309338D-03  0.311900D-03  0.426593D-02
     19  0.527861D-02  0.527349D-02  0.293659D-02  0.309338D-03 -0.378558D-02
     20 -0.313565D-02  0.371392D-02  0.551714D-02 -0.479896D-02 -0.184565D-02
     21 -0.287469D-05 -0.255806D-02  0.623732D-02 -0.624191D-02  0.362837D-05
     22  0.313634D-02  0.574782D-03  0.479445D-02 -0.551914D-02  0.185369D-02
     23 -0.371281D-02  0.313624D-02 -0.551903D-02  0.721756D-03 -0.669707D-02
     24 -0.580032D-03 -0.313575D-02 -0.479885D-02 -0.721195D-03 -0.484779D-02
     25  0.255918D-02 -0.290214D-05 -0.624172D-02  0.158017D-05 -0.299773D-02
     26 -0.255808D-02  0.255919D-02  0.142232D-05  0.623735D-02  0.299688D-02
     27  0.574699D-03 -0.371280D-02  0.721599D-03  0.479440D-02  0.484616D-02
     28  0.371391D-02 -0.579949D-03 -0.721273D-03  0.551717D-02  0.669622D-02
               11            12            13            14            15 
     11  0.508066D-01
     12 -0.392539D-01  0.100481D+00
     13 -0.392604D-01 -0.202625D-01  0.100480D+00
     14 -0.378544D-02 -0.668480D-02  0.164414D-01  0.100480D+00
     15  0.426593D-02 -0.667022D-02 -0.668480D-02 -0.202625D-01  0.100481D+00
     16 -0.379431D-02  0.164418D-01 -0.666995D-02 -0.202625D-01 -0.202628D-01
     17  0.309194D-03  0.426593D-02 -0.378544D-02 -0.392604D-01 -0.392539D-01
     18  0.293645D-02 -0.378559D-02 -0.379416D-02 -0.392535D-01  0.141466D-01
     19  0.312044D-03 -0.379431D-02  0.426581D-02  0.141468D-01 -0.392606D-01
     20 -0.721430D-03  0.669630D-02 -0.484763D-02 -0.184564D-02 -0.484788D-02
     21  0.126479D-05  0.299696D-02 -0.299749D-02  0.299672D-02  0.345627D-05
     22  0.721521D-03  0.484606D-02 -0.669680D-02 -0.669680D-02  0.484606D-02
     23  0.479456D-02  0.185370D-02  0.484590D-02  0.185368D-02 -0.669698D-02
     24  0.551725D-02 -0.184565D-02  0.669604D-02  0.669604D-02 -0.184565D-02
     25  0.623751D-02  0.345627D-05  0.299672D-02 -0.299749D-02  0.299696D-02
     26 -0.624175D-02 -0.299764D-02  0.354222D-05  0.354222D-05 -0.299764D-02
     27 -0.551906D-02 -0.669698D-02  0.185368D-02  0.484590D-02  0.185370D-02
     28 -0.479880D-02 -0.484788D-02 -0.184564D-02 -0.484763D-02  0.669630D-02
               16            17            18            19            20 
     16  0.100481D+00
     17  0.141466D-01  0.508066D-01
     18 -0.392608D-01  0.914898D-02  0.508066D-01
     19 -0.392537D-01  0.914891D-02  0.914891D-02  0.508065D-01
     20  0.669622D-02 -0.479880D-02  0.551717D-02 -0.721273D-03  0.142953D-01
     21 -0.299773D-02  0.623751D-02  0.158017D-05 -0.624172D-02  0.360137D-02
     22  0.185369D-02  0.721521D-03 -0.551914D-02  0.479445D-02  0.394659D-02
     23  0.484616D-02 -0.551906D-02  0.479440D-02  0.721599D-03  0.394659D-02
     24 -0.484779D-02  0.551725D-02 -0.721195D-03 -0.479885D-02 -0.674735D-02
     25  0.362837D-05  0.126479D-05 -0.624191D-02  0.623732D-02 -0.640213D-02
     26  0.299688D-02 -0.624175D-02  0.623735D-02  0.142232D-05  0.360133D-02
     27 -0.669707D-02  0.479456D-02  0.721756D-03 -0.551903D-02 -0.709261D-02
     28 -0.184565D-02 -0.721430D-03 -0.479896D-02  0.551714D-02 -0.674738D-02
               21            22            23            24            25 
     21  0.136023D-01
     22  0.360004D-02  0.142927D-01
     23 -0.639955D-02 -0.674606D-02  0.142927D-01
     24  0.360133D-02 -0.709261D-02  0.394659D-02  0.142953D-01
     25 -0.640088D-02  0.360004D-02  0.360008D-02  0.360133D-02  0.136023D-01
     26 -0.640080D-02 -0.639951D-02  0.360004D-02 -0.640209D-02 -0.640080D-02
     27  0.360008D-02 -0.674606D-02 -0.674609D-02  0.394659D-02 -0.639955D-02
     28 -0.640213D-02  0.394659D-02 -0.709261D-02 -0.674735D-02  0.360137D-02
               26            27            28 
     26  0.136022D-01
     27  0.360004D-02  0.142927D-01
     28  0.360133D-02  0.394659D-02  0.142953D-01
 Leave Link  716 at Wed Mar  4 21:44:08 2015, MaxMem=    33554432 cpu:         0.1
 (Enter /usr/local/research/Gaussian09/g09-revD.01/g09/l103.exe)

 GradGradGradGradGradGradGradGradGradGradGradGradGradGradGradGradGradGrad
 Berny optimization.
 Red2BG is reusing G-inverse.
 Internal  Forces:  Max     0.000000052 RMS     0.000000012
 Search for a local minimum.
 Step number   1 out of a maximum of    2
 All quantities printed in internal units (Hartrees-Bohrs-Radians)
 Second derivative matrix not updated -- analytic derivatives used.
 ITU=  0
     Eigenvalues ---    0.00240   0.04404   0.04404   0.04546   0.04546
     Eigenvalues ---    0.11892   0.12102   0.12227   0.12227   0.17377
     Eigenvalues ---    0.17378   0.30667   0.33315   0.33315   0.33549
     Eigenvalues ---    0.33549   0.34078   0.34277
 Angle between quadratic step and forces=  90.00 degrees.
 Linear search not attempted -- first point.
 Iteration  1 RMS(Cart)=  0.00000066 RMS(Int)=  0.00000000
 ITry= 1 IFail=0 DXMaxC= 1.31D-06 DCOld= 1.00D+10 DXMaxT= 3.00D-01 DXLimC= 3.00D+00 Rises=F
 ClnCor:  largest displacement from symmetrization is 1.52D-12 for atom     4.
 Variable       Old X    -DE/DX   Delta X   Delta X   Delta X     New X
                                 (Linear)    (Quad)   (Total)
    R1        2.08325   0.00000   0.00000   0.00000   0.00000   2.08325
    R2        2.08325   0.00000   0.00000   0.00000   0.00000   2.08325
    R3        2.08325   0.00000   0.00000   0.00000   0.00000   2.08325
    R4        2.88687   0.00000   0.00000   0.00000   0.00000   2.88687
    R5        2.08325   0.00000   0.00000   0.00000   0.00000   2.08325
    R6        2.08325   0.00000   0.00000   0.00000   0.00000   2.08325
    R7        2.08325   0.00000   0.00000   0.00000   0.00000   2.08325
    A1        1.87298   0.00000   0.00000   0.00000   0.00000   1.87298
    A2        1.87298   0.00000   0.00000   0.00000   0.00000   1.87298
    A3        1.94693   0.00000   0.00000   0.00000   0.00000   1.94693
    A4        1.87298   0.00000   0.00000   0.00000   0.00000   1.87298
    A5        1.94693   0.00000   0.00000   0.00000   0.00000   1.94693
    A6        1.94693   0.00000   0.00000   0.00000   0.00000   1.94693
    A7        1.94693   0.00000   0.00000   0.00000   0.00000   1.94693
    A8        1.94693   0.00000   0.00000   0.00000   0.00000   1.94693
    A9        1.94693   0.00000   0.00000   0.00000   0.00000   1.94693
   A10        1.87298   0.00000   0.00000   0.00000   0.00000   1.87298
   A11        1.87298   0.00000   0.00000   0.00000   0.00000   1.87298
   A12        1.87298   0.00000   0.00000   0.00000   0.00000   1.87298
    D1        1.04752   0.00000   0.00000   0.00000   0.00000   1.04752
    D2       -3.14127   0.00000   0.00000   0.00000   0.00000  -3.14127
    D3       -1.04688   0.00000   0.00000   0.00000   0.00000  -1.04688
    D4       -1.04688   0.00000   0.00000   0.00000   0.00000  -1.04688
    D5        1.04752   0.00000   0.00000   0.00000   0.00000   1.04752
    D6       -3.14127   0.00000   0.00000   0.00000   0.00000  -3.14127
    D7       -3.14127   0.00000   0.00000   0.00000   0.00000  -3.14127
    D8       -1.04688   0.00000   0.00000   0.00000   0.00000  -1.04688
    D9        1.04752   0.00000   0.00000   0.00000   0.00000   1.04752
         Item               Value     Threshold  Converged?
 Maximum Force            0.000000     0.000002     YES
 RMS     Force            0.000000     0.000001     YES
 Maximum Displacement     0.000001     0.000006     YES
 RMS     Displacement     0.000001     0.000004     YES
 Predicted change in Energy=-3.005533D-14
 Optimization completed.
    -- Stationary point found.
                           ----------------------------
                           !   Optimized Parameters   !
                           ! (Angstroms and Degrees)  !
 --------------------------                            --------------------------
 ! Name  Definition              Value          Derivative Info.                !
 --------------------------------------------------------------------------------
 ! R1    R(1,2)                  1.1024         -DE/DX =    0.0                 !
 ! R2    R(1,3)                  1.1024         -DE/DX =    0.0                 !
 ! R3    R(1,4)                  1.1024         -DE/DX =    0.0                 !
 ! R4    R(1,5)                  1.5277         -DE/DX =    0.0                 !
 ! R5    R(5,6)                  1.1024         -DE/DX =    0.0                 !
 ! R6    R(5,7)                  1.1024         -DE/DX =    0.0                 !
 ! R7    R(5,8)                  1.1024         -DE/DX =    0.0                 !
 ! A1    A(2,1,3)              107.3138         -DE/DX =    0.0                 !
 ! A2    A(2,1,4)              107.3138         -DE/DX =    0.0                 !
 ! A3    A(2,1,5)              111.5509         -DE/DX =    0.0                 !
 ! A4    A(3,1,4)              107.3138         -DE/DX =    0.0                 !
 ! A5    A(3,1,5)              111.5509         -DE/DX =    0.0                 !
 ! A6    A(4,1,5)              111.5509         -DE/DX =    0.0                 !
 ! A7    A(1,5,6)              111.5509         -DE/DX =    0.0                 !
 ! A8    A(1,5,7)              111.5509         -DE/DX =    0.0                 !
 ! A9    A(1,5,8)              111.5509         -DE/DX =    0.0                 !
 ! A10   A(6,5,7)              107.3138         -DE/DX =    0.0                 !
 ! A11   A(6,5,8)              107.3138         -DE/DX =    0.0                 !
 ! A12   A(7,5,8)              107.3138         -DE/DX =    0.0                 !
 ! D1    D(2,1,5,6)             60.0184         -DE/DX =    0.0                 !
 ! D2    D(2,1,5,7)           -179.9816         -DE/DX =    0.0                 !
 ! D3    D(2,1,5,8)            -59.9816         -DE/DX =    0.0                 !
 ! D4    D(3,1,5,6)            -59.9816         -DE/DX =    0.0                 !
 ! D5    D(3,1,5,7)             60.0184         -DE/DX =    0.0                 !
 ! D6    D(3,1,5,8)           -179.9816         -DE/DX =    0.0                 !
 ! D7    D(4,1,5,6)           -179.9816         -DE/DX =    0.0                 !
 ! D8    D(4,1,5,7)            -59.9816         -DE/DX =    0.0                 !
 ! D9    D(4,1,5,8)             60.0184         -DE/DX =    0.0                 !
 --------------------------------------------------------------------------------
 GradGradGradGradGradGradGradGradGradGradGradGradGradGradGradGradGradGrad

 Leave Link  103 at Wed Mar  4 21:44:08 2015, MaxMem=    33554432 cpu:         0.0
 (Enter /usr/local/research/Gaussian09/g09-revD.01/g09/l9999.exe)
 1\1\GINC-HEISENBERG\Freq\RB3LYP\def2SVP\C2H6\LEIN\04-Mar-2015\0\\#P Ge
 om=AllCheck Guess=TCheck SCRF=Check GenChk RB3LYP/def2SVP Freq\\-- eth
 ane staggered --\\0,1\C,-0.3327995515,-0.0960272384,0.0050356022\H,0.0
 153407035,-1.1414513337,-0.0294789414\H,0.0157904635,0.3964839531,-0.9
 175814134\H,-1.4344820919,-0.115788162,-0.0297424952\C,0.1764309227,0.
 624114334,1.25236933\H,1.2781134966,0.6441601786,1.2869829161\H,-0.171
 9779797,1.6694434836,1.2870483666\H,-0.1718904786,0.1314131671,2.17498
 6364\\Version=EM64L-G09RevD.01\State=1-A1\HF=-79.7716336\RMSD=1.865e-0
 9\RMSF=1.151e-08\ZeroPoint=0.0741741\Thermal=0.0776556\Dipole=0.,0.,0.
 \DipoleDeriv=0.0921418,0.0008081,0.0014169,0.000803,0.0927131,0.001939
 9,0.0013738,0.001946,0.0949567,0.0348959,0.0609069,-0.0108079,0.047589
 7,-0.1481107,-0.044084,-0.0184841,-0.0223053,0.019946,0.0348351,-0.039
 8235,0.0474382,-0.0398361,0.0067391,0.0669962,0.0320267,0.0452462,-0.1
 34843,-0.1618738,-0.0218947,-0.0380223,-0.0085435,0.048662,-0.0248606,
 -0.014924,-0.0248845,0.0199404,0.0921418,0.000823,0.0014083,0.0007882,
 0.0927131,0.001946,0.0013823,0.0019399,0.0949567,-0.1618738,-0.0219436
 ,-0.037994,-0.008614,0.0486632,-0.024881,-0.0148833,-0.0248626,0.01993
 91,0.0348573,0.0609637,-0.0107793,0.047625,-0.1480733,-0.0441038,-0.01
 84912,-0.022351,0.0199472,0.0348738,-0.03982,0.0473746,-0.0398123,0.00
 67005,0.0670412,0.0319997,0.0452653,-0.134843\Polar=23.6861063,0.35673
 91,23.9387539,0.617896,0.8736887,24.9476221\PG=D03 [C3(C1.C1),X(H6)]\N
 Imag=0\\0.55755237,-0.01365448,0.54789580,-0.02365048,-0.03344948,0.50
 927093,-0.07505761,0.08215432,0.00166301,0.07594757,0.08147706,-0.2839
 7633,-0.00362296,-0.08796058,0.30571333,0.00127386,-0.00252345,-0.0464
 1227,0.00030819,0.00694265,0.04918164,-0.07510871,-0.03965404,0.072061
 87,0.00314667,0.00464970,-0.00988062,0.07600718,-0.03965557,-0.1030924
 0,0.10182376,-0.01089657,-0.01226954,0.02415401,0.04426889,0.10724422,
 0.07128456,0.10072159,-0.22724511,-0.00090964,-0.00080962,0.00119806,-
 0.07611482,-0.10754543,0.24759113,-0.31218854,-0.00225676,-0.00402782,
 -0.00859324,-0.00064786,0.00020213,-0.00860836,0.00050454,-0.00046297,
 0.33547067,-0.00158499,-0.04683214,0.00036793,0.03009768,0.00180163,0.
 00008143,-0.01503798,-0.00052212,-0.00113263,0.00368054,0.04617798,-0.
 00285866,0.00036799,-0.04642544,0.00000181,0.00021848,-0.00113320,0.02
 606546,-0.00127615,0.00120567,0.00650463,0.00259754,0.04919388,-0.0941
 4237,-0.02057905,-0.03564815,0.00365302,0.00421725,0.00970496,0.003659
 11,0.00630041,0.00851180,-0.00836458,-0.01652541,-0.02861317,0.5575523
 7,-0.02058238,-0.10870019,-0.05041101,-0.01226885,-0.01271186,-0.02692
 286,0.00629831,0.00810716,0.01202991,-0.00002963,-0.00069094,0.0001851
 8,-0.01365448,0.54789580,-0.03564622,-0.05041238,-0.16691172,0.0001892
 0,0.00001126,-0.00048250,-0.01053798,-0.01489394,-0.02130761,-0.000053
 34,0.00017825,-0.00048699,-0.02365048,-0.03344948,0.50927093,-0.008364
 58,-0.00003005,-0.00005311,0.00059972,-0.00040098,0.00003505,0.0006002
 5,0.00023220,-0.00033073,0.00108278,-0.00107979,-0.00186942,-0.3121885
 5,-0.00231323,-0.00399522,0.33547069,-0.01651752,-0.00069240,0.0001809
 7,-0.00026628,0.00036402,0.00071672,0.00070649,0.00048502,0.00034218,-
 0.00107920,-0.00078513,-0.00315301,-0.00163652,-0.04684503,0.00036067,
 0.00374195,0.04618937,-0.02861773,0.00018077,-0.00048553,0.00066407,0.
 00027184,0.00109482,0.00010946,0.00078816,0.00097940,-0.00186976,-0.00
 315364,-0.00442625,-0.00282891,0.00036035,-0.04641254,0.00646917,0.002
 60413,0.04918248,0.00365668,-0.01227545,0.00018671,0.00010083,-0.00142
 681,-0.00235004,0.00020179,0.00056755,0.00043156,0.00060006,-0.0002585
 3,0.00066658,-0.07508008,0.08219791,0.00168071,-0.00860318,0.03009417,
 0.00000682,0.07597602,0.00421896,-0.01271405,0.00001013,-0.00142622,0.
 00019689,-0.00281404,0.00009015,0.00088199,-0.00019717,-0.00040259,0.0
 0036653,0.00027356,0.08152559,-0.28394097,-0.00365127,-0.00065138,0.00
 181157,0.00021746,-0.08801193,0.30567347,0.00970761,-0.02691709,-0.000
 48397,-0.00234955,-0.00281351,-0.00442631,0.00070727,0.00035763,0.0009
 7478,0.00003583,0.00071966,0.00109808,0.00129097,-0.00254896,-0.046425
 17,0.00020475,0.00007705,-0.00113320,0.00029017,0.00697388,0.04919304,
 0.00365545,0.00629716,-0.01053102,0.00020284,0.00009188,0.00070659,0.0
 0010085,-0.00132164,-0.00241008,0.00059991,0.00070820,0.00010148,-0.07
 508623,-0.03964759,0.07201528,-0.00859842,-0.01504407,0.02606600,0.003
 14667,0.00465724,-0.00988736,0.07597871,0.00629897,0.00811081,-0.01489
 887,0.00056610,0.00088234,0.00036584,-0.00132176,-0.00083368,-0.003408
 93,0.00023072,0.00048396,0.00078607,-0.03964614,-0.10311487,0.10185672
 ,0.00050051,-0.00052694,-0.00126881,-0.01088697,-0.01227467,0.02415105
 ,0.04425884,0.10727268,0.00850900,0.01203189,-0.02130761,0.00043271,-0
 .00019782,0.00097949,-0.00241083,-0.00340840,-0.00339577,-0.00032973,0
 .00034131,0.00097468,0.07123398,0.10075736,-0.22724512,-0.00046123,-0.
 00112866,0.00120055,-0.00091281,-0.00081257,0.00120319,-0.07606134,-0.
 10758325,0.24759114\\-0.00000001,-0.00000002,-0.00000003,-0.00000001,0
 .,0.,0.,-0.00000001,0.,0.,0.,-0.00000001,0.00000001,0.00000002,0.00000
 003,0.,0.,0.,0.,0.,0.00000001,0.00000001,0.,0.\\\@


 THERE ONCE WAS A GIRL NAMED IRENE,
 WHO LIVED ON DISTILLED KEROSENE,
      BUT SHE STARTED ABSORBIN'
      A NEW HYDROCARBON,
 AND SINCE THEN HAS NEVER BENZENE.
 Job cpu time:       0 days  0 hours  0 minutes 25.4 seconds.
 File lengths (MBytes):  RWF=      5 Int=      0 D2E=      0 Chk=      1 Scr=      1
 Normal termination of Gaussian 09 at Wed Mar  4 21:44:08 2015.
