 Entering Gaussian System, Link 0=g09
 Initial command:
 /usr/local/research/Gaussian09/g09-revD.01/g09/l1.exe "/scratch/lein/Gau-13955.inp" -scrdir="/scratch/lein/"
 Entering Link 1 = /usr/local/research/Gaussian09/g09-revD.01/g09/l1.exe PID=     13958.
  
 Copyright (c) 1988,1990,1992,1993,1995,1998,2003,2009,2013,
            Gaussian, Inc.  All Rights Reserved.
  
 This is part of the Gaussian(R) 09 program.  It is based on
 the Gaussian(R) 03 system (copyright 2003, Gaussian, Inc.),
 the Gaussian(R) 98 system (copyright 1998, Gaussian, Inc.),
 the Gaussian(R) 94 system (copyright 1995, Gaussian, Inc.),
 the Gaussian 92(TM) system (copyright 1992, Gaussian, Inc.),
 the Gaussian 90(TM) system (copyright 1990, Gaussian, Inc.),
 the Gaussian 88(TM) system (copyright 1988, Gaussian, Inc.),
 the Gaussian 86(TM) system (copyright 1986, Carnegie Mellon
 University), and the Gaussian 82(TM) system (copyright 1983,
 Carnegie Mellon University). Gaussian is a federally registered
 trademark of Gaussian, Inc.
  
 This software contains proprietary and confidential information,
 including trade secrets, belonging to Gaussian, Inc.
  
 This software is provided under written license and may be
 used, copied, transmitted, or stored only in accord with that
 written license.
  
 The following legend is applicable only to US Government
 contracts under FAR:
  
                    RESTRICTED RIGHTS LEGEND
  
 Use, reproduction and disclosure by the US Government is
 subject to restrictions as set forth in subparagraphs (a)
 and (c) of the Commercial Computer Software - Restricted
 Rights clause in FAR 52.227-19.
  
 Gaussian, Inc.
 340 Quinnipiac St., Bldg. 40, Wallingford CT 06492
  
  
 ---------------------------------------------------------------
 Warning -- This program may not be used in any manner that
 competes with the business of Gaussian, Inc. or will provide
 assistance to any competitor of Gaussian, Inc.  The licensee
 of this program is prohibited from giving any competitor of
 Gaussian, Inc. access to this program.  By using this program,
 the user acknowledges that Gaussian, Inc. is engaged in the
 business of creating and licensing software in the field of
 computational chemistry and represents and warrants to the
 licensee that it is not a competitor of Gaussian, Inc. and that
 it will not use this program in any manner prohibited above.
 ---------------------------------------------------------------
  

 Cite this work as:
 Gaussian 09, Revision D.01,
 M. J. Frisch, G. W. Trucks, H. B. Schlegel, G. E. Scuseria, 
 M. A. Robb, J. R. Cheeseman, G. Scalmani, V. Barone, B. Mennucci, 
 G. A. Petersson, H. Nakatsuji, M. Caricato, X. Li, H. P. Hratchian, 
 A. F. Izmaylov, J. Bloino, G. Zheng, J. L. Sonnenberg, M. Hada, 
 M. Ehara, K. Toyota, R. Fukuda, J. Hasegawa, M. Ishida, T. Nakajima, 
 Y. Honda, O. Kitao, H. Nakai, T. Vreven, J. A. Montgomery, Jr., 
 J. E. Peralta, F. Ogliaro, M. Bearpark, J. J. Heyd, E. Brothers, 
 K. N. Kudin, V. N. Staroverov, T. Keith, R. Kobayashi, J. Normand, 
 K. Raghavachari, A. Rendell, J. C. Burant, S. S. Iyengar, J. Tomasi, 
 M. Cossi, N. Rega, J. M. Millam, M. Klene, J. E. Knox, J. B. Cross, 
 V. Bakken, C. Adamo, J. Jaramillo, R. Gomperts, R. E. Stratmann, 
 O. Yazyev, A. J. Austin, R. Cammi, C. Pomelli, J. W. Ochterski, 
 R. L. Martin, K. Morokuma, V. G. Zakrzewski, G. A. Voth, 
 P. Salvador, J. J. Dannenberg, S. Dapprich, A. D. Daniels, 
 O. Farkas, J. B. Foresman, J. V. Ortiz, J. Cioslowski, 
 and D. J. Fox, Gaussian, Inc., Wallingford CT, 2013.
 
 ******************************************
 Gaussian 09:  EM64L-G09RevD.01 24-Apr-2013
                 4-Feb-2016 
 ******************************************
 %chk=g09-h2o2.chk
 ----------------------------------------------------------------------
 #p pbe1pbe def2svp opt freq pop(hirshfeld) density=current iop(7/33=1)
  iop(6/80=1)
 ----------------------------------------------------------------------
 1/14=-1,18=20,19=15,26=3,38=1/1,3;
 2/9=110,12=2,17=6,18=5,40=1/2;
 3/5=43,7=101,11=2,16=1,25=1,30=1,71=1,74=-13/1,2,3;
 4//1;
 5/5=2,38=5/2;
 6/7=2,8=2,9=2,10=2,22=-1,28=1,79=1,80=1/1;
 7/33=1/1,2,3,16;
 1/14=-1,18=20,19=15,26=3/3(2);
 2/9=110/2;
 99//99;
 2/9=110/2;
 3/5=43,7=101,11=2,16=1,25=1,30=1,71=1,74=-13/1,2,3;
 4/5=5,16=3,69=1/1;
 5/5=2,38=5/2;
 7/33=1/1,2,3,16;
 1/14=-1,18=20,19=15,26=3/3(-5);
 2/9=110/2;
 6/7=2,8=2,9=2,10=2,19=2,22=-1,28=1,79=1,80=1/1;
 99/9=1/99;
 Leave Link    1 at Thu Feb  4 12:52:12 2016, MaxMem=           0 cpu:         0.1
 (Enter /usr/local/research/Gaussian09/g09-revD.01/g09/l101.exe)
 ----------------------
 -- Hydrogenperoxide --
 ----------------------
 Symbolic Z-matrix:
 Charge =  0 Multiplicity = 1
 H                     0.60687   1.09858   0.39807 
 O                    -0.10777   0.66128  -0.04976 
 O                     0.10777  -0.66128  -0.04976 
 H                    -0.60687  -1.09858   0.39807 
 
 NAtoms=      4 NQM=        4 NQMF=       0 NMMI=      0 NMMIF=      0
                NMic=       0 NMicF=      0.
                    Isotopes and Nuclear Properties:
 (Nuclear quadrupole moments (NQMom) in fm**2, nuclear magnetic moments (NMagM)
  in nuclear magnetons)

  Atom         1           2           3           4
 IAtWgt=           1          16          16           1
 AtmWgt=   1.0078250  15.9949146  15.9949146   1.0078250
 NucSpn=           1           0           0           1
 AtZEff=   0.0000000   0.0000000   0.0000000   0.0000000
 NQMom=    0.0000000   0.0000000   0.0000000   0.0000000
 NMagM=    2.7928460   0.0000000   0.0000000   2.7928460
 AtZNuc=   1.0000000   8.0000000   8.0000000   1.0000000
 Leave Link  101 at Thu Feb  4 12:52:12 2016, MaxMem=    33554432 cpu:         0.2
 (Enter /usr/local/research/Gaussian09/g09-revD.01/g09/l103.exe)

 GradGradGradGradGradGradGradGradGradGradGradGradGradGradGradGradGradGrad
 Berny optimization.
 Initialization pass.
                           ----------------------------
                           !    Initial Parameters    !
                           ! (Angstroms and Degrees)  !
 --------------------------                            --------------------------
 ! Name  Definition              Value          Derivative Info.                !
 --------------------------------------------------------------------------------
 ! R1    R(1,2)                  0.95           estimate D2E/DX2                !
 ! R2    R(2,3)                  1.34           estimate D2E/DX2                !
 ! R3    R(3,4)                  0.95           estimate D2E/DX2                !
 ! A1    A(1,2,3)              109.471          estimate D2E/DX2                !
 ! A2    A(2,3,4)              109.471          estimate D2E/DX2                !
 ! D1    D(1,2,3,4)            120.0001         estimate D2E/DX2                !
 --------------------------------------------------------------------------------
 Trust Radius=3.00D-01 FncErr=1.00D-07 GrdErr=1.00D-06
 Number of steps in this run=     20 maximum allowed number of steps=    100.
 GradGradGradGradGradGradGradGradGradGradGradGradGradGradGradGradGradGrad

 Leave Link  103 at Thu Feb  4 12:52:12 2016, MaxMem=    33554432 cpu:         0.0
 (Enter /usr/local/research/Gaussian09/g09-revD.01/g09/l202.exe)
                          Input orientation:                          
 ---------------------------------------------------------------------
 Center     Atomic      Atomic             Coordinates (Angstroms)
 Number     Number       Type             X           Y           Z
 ---------------------------------------------------------------------
      1          1           0        0.606869    1.098583    0.398075
      2          8           0       -0.107769    0.661276   -0.049759
      3          8           0        0.107769   -0.661276   -0.049759
      4          1           0       -0.606869   -1.098583    0.398075
 ---------------------------------------------------------------------
                    Distance matrix (angstroms):
                    1          2          3          4
     1  H    0.000000
     2  O    0.950000   0.000000
     3  O    1.883284   1.340000   0.000000
     4  H    2.510118   1.883284   0.950000   0.000000
 Stoichiometry    H2O2
 Framework group  C2[X(H2O2)]
 Deg. of freedom     4
 Full point group                 C2      NOp   2
 Largest Abelian subgroup         C2      NOp   2
 Largest concise Abelian subgroup C2      NOp   2
                         Standard orientation:                         
 ---------------------------------------------------------------------
 Center     Atomic      Atomic             Coordinates (Angstroms)
 Number     Number       Type             X           Y           Z
 ---------------------------------------------------------------------
      1          1           0        0.775673    0.986663    0.398075
      2          8           0        0.000000    0.670000   -0.049759
      3          8           0        0.000000   -0.670000   -0.049759
      4          1           0       -0.775673   -0.986663    0.398075
 ---------------------------------------------------------------------
 Rotational constants (GHZ):    351.6524673     29.9774251     28.8207760
 Leave Link  202 at Thu Feb  4 12:52:12 2016, MaxMem=    33554432 cpu:         0.0
 (Enter /usr/local/research/Gaussian09/g09-revD.01/g09/l301.exe)
 Standard basis: def2SVP (5D, 7F)
 Ernie: Thresh=  0.10000D-02 Tol=  0.10000D-05 Strict=F.
 There are    20 symmetry adapted cartesian basis functions of A   symmetry.
 There are    20 symmetry adapted cartesian basis functions of B   symmetry.
 There are    19 symmetry adapted basis functions of A   symmetry.
 There are    19 symmetry adapted basis functions of B   symmetry.
    38 basis functions,    64 primitive gaussians,    40 cartesian basis functions
     9 alpha electrons        9 beta electrons
       nuclear repulsion energy        38.8931948154 Hartrees.
 IExCor= 1009 DFT=T Ex+Corr=PBE1PBE ExCW=0 ScaHFX=  0.250000
 ScaDFX=  0.750000  0.750000  1.000000  1.000000 ScalE2=  1.000000  1.000000
 IRadAn=      0 IRanWt=     -1 IRanGd=            0 ICorTp=0 IEmpDi=  4
 NAtoms=    4 NActive=    4 NUniq=    2 SFac= 4.00D+00 NAtFMM=   60 NAOKFM=F Big=F
 Integral buffers will be    131072 words long.
 Raffenetti 2 integral format.
 Two-electron integral symmetry is turned on.
 Leave Link  301 at Thu Feb  4 12:52:13 2016, MaxMem=    33554432 cpu:         0.1
 (Enter /usr/local/research/Gaussian09/g09-revD.01/g09/l302.exe)
 NPDir=0 NMtPBC=     1 NCelOv=     1 NCel=       1 NClECP=     1 NCelD=      1
         NCelK=      1 NCelE2=     1 NClLst=     1 CellRange=     0.0.
 One-electron integrals computed using PRISM.
 One-electron integral symmetry used in STVInt
   2 Symmetry operations used in ECPInt.
 ECPInt:  NShTT=     171 NPrTT=     627 LenC2=     172 LenP2D=     590.
 LDataN:  DoStor=T MaxTD1= 4 Len=   56
 NBasis=    38 RedAO= T EigKep=  1.21D-02  NBF=    19    19
 NBsUse=    38 1.00D-06 EigRej= -1.00D+00 NBFU=    19    19
 Precomputing XC quadrature grid using
 IXCGrd= 4 IRadAn=           0 IRanWt=          -1 IRanGd=           0 AccXCQ= 0.00D+00.
 Generated NRdTot=       0 NPtTot=           0 NUsed=           0 NTot=          32
 NSgBfM=    40    40    40    40    40 MxSgAt=     4 MxSgA2=     4.
 Leave Link  302 at Thu Feb  4 12:52:13 2016, MaxMem=    33554432 cpu:         0.3
 (Enter /usr/local/research/Gaussian09/g09-revD.01/g09/l303.exe)
 DipDrv:  MaxL=1.
 Leave Link  303 at Thu Feb  4 12:52:13 2016, MaxMem=    33554432 cpu:         0.0
 (Enter /usr/local/research/Gaussian09/g09-revD.01/g09/l401.exe)
 ExpMin= 1.22D-01 ExpMax= 2.27D+03 ExpMxC= 3.41D+02 IAcc=1 IRadAn=         1 AccDes= 0.00D+00
 Harris functional with IExCor= 1009 and IRadAn=       1 diagonalized for initial guess.
 HarFok:  IExCor= 1009 AccDes= 0.00D+00 IRadAn=         1 IDoV= 1 UseB2=F ITyADJ=14
 ICtDFT=  3500011 ScaDFX=  1.000000  1.000000  1.000000  1.000000
 FoFCou: FMM=F IPFlag=           0 FMFlag=      100000 FMFlg1=           0
         NFxFlg=           0 DoJE=T BraDBF=F KetDBF=T FulRan=T
         wScrn=  0.000000 ICntrl=     500 IOpCl=  0 I1Cent=   200000004 NGrid=           0
         NMat0=    1 NMatS0=      1 NMatT0=    0 NMatD0=    1 NMtDS0=    0 NMtDT0=    0
 Petite list used in FoFCou.
 Harris En= -151.300973871942    
 JPrj=0 DoOrth=F DoCkMO=F.
 Initial guess orbital symmetries:
       Occupied  (B) (A) (A) (B) (A) (B) (A) (A) (B)
       Virtual   (B) (A) (B) (B) (A) (B) (A) (A) (B) (A) (B) (A)
                 (B) (A) (B) (B) (A) (B) (A) (A) (A) (B) (A) (B)
                 (B) (A) (B) (A) (B)
 The electronic state of the initial guess is 1-A.
 Leave Link  401 at Thu Feb  4 12:52:14 2016, MaxMem=    33554432 cpu:         0.3
 (Enter /usr/local/research/Gaussian09/g09-revD.01/g09/l502.exe)
 Closed shell SCF:
 Using DIIS extrapolation, IDIIS=  1040.
 Integral symmetry usage will be decided dynamically.
 Keep R1 ints in memory in symmetry-blocked form, NReq=1161211.
 IVT=       23954 IEndB=       23954 NGot=    33554432 MDV=    33391000
 LenX=    33391000 LenY=    33388959
 Requested convergence on RMS density matrix=1.00D-08 within 128 cycles.
 Requested convergence on MAX density matrix=1.00D-06.
 Requested convergence on             energy=1.00D-06.
 No special actions if energy rises.
 FoFCou: FMM=F IPFlag=           0 FMFlag=           0 FMFlg1=           0
         NFxFlg=           0 DoJE=F BraDBF=F KetDBF=F FulRan=T
         wScrn=  0.000000 ICntrl=     600 IOpCl=  0 I1Cent=           0 NGrid=           0
         NMat0=    1 NMatS0=    741 NMatT0=    0 NMatD0=    1 NMtDS0=    0 NMtDT0=    0
 Petite list used in FoFCou.
 Integral accuracy reduced to 1.0D-05 until final iterations.

 Cycle   1  Pass 0  IDiag  1:
 E= -151.221612943885    
 DIIS: error= 2.40D-02 at cycle   1 NSaved=   1.
 NSaved= 1 IEnMin= 1 EnMin= -151.221612943885     IErMin= 1 ErrMin= 2.40D-02
 ErrMax= 2.40D-02  0.00D+00 EMaxC= 1.00D-01 BMatC= 4.76D-02 BMatP= 4.76D-02
 IDIUse=3 WtCom= 7.60D-01 WtEn= 2.40D-01
 Coeff-Com:  0.100D+01
 Coeff-En:   0.100D+01
 Coeff:      0.100D+01
 Gap=     0.280 Goal=   None    Shift=    0.000
 GapD=    0.280 DampG=1.000 DampE=0.500 DampFc=0.5000 IDamp=-1.
 Damping current iteration by 5.00D-01
 RMSDP=7.48D-03 MaxDP=7.32D-02              OVMax= 8.26D-02

 Cycle   2  Pass 0  IDiag  1:
 E= -151.238929992920     Delta-E=       -0.017317049035 Rises=F Damp=T
 DIIS: error= 8.52D-03 at cycle   2 NSaved=   2.
 NSaved= 2 IEnMin= 2 EnMin= -151.238929992920     IErMin= 2 ErrMin= 8.52D-03
 ErrMax= 8.52D-03  0.00D+00 EMaxC= 1.00D-01 BMatC= 2.91D-03 BMatP= 4.76D-02
 IDIUse=3 WtCom= 9.15D-01 WtEn= 8.52D-02
 Coeff-Com: -0.553D-01 0.106D+01
 Coeff-En:   0.000D+00 0.100D+01
 Coeff:     -0.506D-01 0.105D+01
 Gap=     0.341 Goal=   None    Shift=    0.000
 RMSDP=9.34D-04 MaxDP=8.73D-03 DE=-1.73D-02 OVMax= 3.86D-02

 Cycle   3  Pass 0  IDiag  1:
 E= -151.255939113472     Delta-E=       -0.017009120552 Rises=F Damp=F
 DIIS: error= 3.21D-03 at cycle   3 NSaved=   3.
 NSaved= 3 IEnMin= 3 EnMin= -151.255939113472     IErMin= 3 ErrMin= 3.21D-03
 ErrMax= 3.21D-03  0.00D+00 EMaxC= 1.00D-01 BMatC= 6.54D-04 BMatP= 2.91D-03
 IDIUse=3 WtCom= 9.68D-01 WtEn= 3.21D-02
 Coeff-Com: -0.566D-01 0.345D+00 0.711D+00
 Coeff-En:   0.000D+00 0.000D+00 0.100D+01
 Coeff:     -0.548D-01 0.334D+00 0.721D+00
 Gap=     0.336 Goal=   None    Shift=    0.000
 RMSDP=4.48D-04 MaxDP=3.66D-03 DE=-1.70D-02 OVMax= 5.16D-03

 Cycle   4  Pass 0  IDiag  1:
 E= -151.256373851584     Delta-E=       -0.000434738112 Rises=F Damp=F
 DIIS: error= 4.13D-04 at cycle   4 NSaved=   4.
 NSaved= 4 IEnMin= 4 EnMin= -151.256373851584     IErMin= 4 ErrMin= 4.13D-04
 ErrMax= 4.13D-04  0.00D+00 EMaxC= 1.00D-01 BMatC= 9.67D-06 BMatP= 6.54D-04
 IDIUse=3 WtCom= 9.96D-01 WtEn= 4.13D-03
 Coeff-Com: -0.327D-03 0.185D-02 0.109D+00 0.889D+00
 Coeff-En:   0.000D+00 0.000D+00 0.000D+00 0.100D+01
 Coeff:     -0.325D-03 0.185D-02 0.109D+00 0.890D+00
 Gap=     0.336 Goal=   None    Shift=    0.000
 RMSDP=5.36D-05 MaxDP=4.11D-04 DE=-4.35D-04 OVMax= 6.12D-04

 Cycle   5  Pass 0  IDiag  1:
 E= -151.256380383922     Delta-E=       -0.000006532338 Rises=F Damp=F
 DIIS: error= 2.68D-05 at cycle   5 NSaved=   5.
 NSaved= 5 IEnMin= 5 EnMin= -151.256380383922     IErMin= 5 ErrMin= 2.68D-05
 ErrMax= 2.68D-05  0.00D+00 EMaxC= 1.00D-01 BMatC= 3.67D-08 BMatP= 9.67D-06
 IDIUse=1 WtCom= 1.00D+00 WtEn= 0.00D+00
 Coeff-Com:  0.412D-03-0.183D-02 0.170D-01 0.171D+00 0.813D+00
 Coeff:      0.412D-03-0.183D-02 0.170D-01 0.171D+00 0.813D+00
 Gap=     0.336 Goal=   None    Shift=    0.000
 RMSDP=3.59D-06 MaxDP=2.53D-05 DE=-6.53D-06 OVMax= 4.02D-05

 Initial convergence to 1.0D-05 achieved.  Increase integral accuracy.
 Cycle   6  Pass 1  IDiag  1:
 E= -151.256358356019     Delta-E=        0.000022027903 Rises=F Damp=F
 DIIS: error= 3.44D-06 at cycle   1 NSaved=   1.
 NSaved= 1 IEnMin= 1 EnMin= -151.256358356019     IErMin= 1 ErrMin= 3.44D-06
 ErrMax= 3.44D-06  0.00D+00 EMaxC= 1.00D-01 BMatC= 7.29D-10 BMatP= 7.29D-10
 IDIUse=1 WtCom= 1.00D+00 WtEn= 0.00D+00
 Coeff-Com:  0.100D+01
 Coeff:      0.100D+01
 Gap=     0.336 Goal=   None    Shift=    0.000
 RMSDP=3.59D-06 MaxDP=2.53D-05 DE= 2.20D-05 OVMax= 1.75D-05

 Cycle   7  Pass 1  IDiag  1:
 E= -151.256358357022     Delta-E=       -0.000000001003 Rises=F Damp=F
 DIIS: error= 1.27D-06 at cycle   2 NSaved=   2.
 NSaved= 2 IEnMin= 2 EnMin= -151.256358357022     IErMin= 2 ErrMin= 1.27D-06
 ErrMax= 1.27D-06  0.00D+00 EMaxC= 1.00D-01 BMatC= 9.68D-11 BMatP= 7.29D-10
 IDIUse=1 WtCom= 1.00D+00 WtEn= 0.00D+00
 Coeff-Com:  0.183D+00 0.817D+00
 Coeff:      0.183D+00 0.817D+00
 Gap=     0.336 Goal=   None    Shift=    0.000
 RMSDP=3.23D-07 MaxDP=2.64D-06 DE=-1.00D-09 OVMax= 3.82D-06

 Cycle   8  Pass 1  IDiag  1:
 E= -151.256358357078     Delta-E=       -0.000000000057 Rises=F Damp=F
 DIIS: error= 6.42D-07 at cycle   3 NSaved=   3.
 NSaved= 3 IEnMin= 3 EnMin= -151.256358357078     IErMin= 3 ErrMin= 6.42D-07
 ErrMax= 6.42D-07  0.00D+00 EMaxC= 1.00D-01 BMatC= 3.38D-11 BMatP= 9.68D-11
 IDIUse=1 WtCom= 1.00D+00 WtEn= 0.00D+00
 Coeff-Com: -0.169D-01 0.351D+00 0.666D+00
 Coeff:     -0.169D-01 0.351D+00 0.666D+00
 Gap=     0.336 Goal=   None    Shift=    0.000
 RMSDP=1.25D-07 MaxDP=1.29D-06 DE=-5.68D-11 OVMax= 1.39D-06

 Cycle   9  Pass 1  IDiag  1:
 E= -151.256358357104     Delta-E=       -0.000000000025 Rises=F Damp=F
 DIIS: error= 1.02D-07 at cycle   4 NSaved=   4.
 NSaved= 4 IEnMin= 4 EnMin= -151.256358357104     IErMin= 4 ErrMin= 1.02D-07
 ErrMax= 1.02D-07  0.00D+00 EMaxC= 1.00D-01 BMatC= 1.10D-12 BMatP= 3.38D-11
 IDIUse=1 WtCom= 1.00D+00 WtEn= 0.00D+00
 Coeff-Com: -0.138D-01 0.433D-01 0.198D+00 0.773D+00
 Coeff:     -0.138D-01 0.433D-01 0.198D+00 0.773D+00
 Gap=     0.336 Goal=   None    Shift=    0.000
 RMSDP=3.60D-08 MaxDP=2.32D-07 DE=-2.52D-11 OVMax= 5.57D-07

 Cycle  10  Pass 1  IDiag  1:
 E= -151.256358357105     Delta-E=       -0.000000000001 Rises=F Damp=F
 DIIS: error= 1.91D-08 at cycle   5 NSaved=   5.
 NSaved= 5 IEnMin= 5 EnMin= -151.256358357105     IErMin= 5 ErrMin= 1.91D-08
 ErrMax= 1.91D-08  0.00D+00 EMaxC= 1.00D-01 BMatC= 2.01D-14 BMatP= 1.10D-12
 IDIUse=1 WtCom= 1.00D+00 WtEn= 0.00D+00
 Coeff-Com:  0.169D-02-0.187D-01-0.327D-01 0.224D-01 0.103D+01
 Coeff:      0.169D-02-0.187D-01-0.327D-01 0.224D-01 0.103D+01
 Gap=     0.336 Goal=   None    Shift=    0.000
 RMSDP=6.40D-09 MaxDP=3.77D-08 DE=-1.17D-12 OVMax= 1.17D-07

 SCF Done:  E(RPBE1PBE) =  -151.256358357     A.U. after   10 cycles
            NFock= 10  Conv=0.64D-08     -V/T= 2.0040
 KE= 1.506483261080D+02 PE=-4.360018882417D+02 EE= 9.520400896116D+01
 Leave Link  502 at Thu Feb  4 12:52:15 2016, MaxMem=    33554432 cpu:         1.3
 (Enter /usr/local/research/Gaussian09/g09-revD.01/g09/l601.exe)
 Copying SCF densities to generalized density rwf, IOpCl= 0 IROHF=0.

 **********************************************************************

            Population analysis using the SCF density.

 **********************************************************************

 Orbital symmetries:
       Occupied  (B) (A) (A) (B) (A) (B) (A) (A) (B)
       Virtual   (B) (A) (B) (B) (A) (B) (A) (A) (B) (A) (B) (A)
                 (B) (A) (B) (B) (A) (B) (A) (A) (B) (A) (A) (B)
                 (B) (A) (B) (A) (B)
 The electronic state is 1-A.
 Alpha  occ. eigenvalues --  -19.24732 -19.24718  -1.17389  -0.89428  -0.58724
 Alpha  occ. eigenvalues --   -0.50196  -0.43858  -0.31251  -0.26470
 Alpha virt. eigenvalues --    0.07155   0.07698   0.18086   0.60986   0.62526
 Alpha virt. eigenvalues --    0.89467   0.90909   0.92799   0.99900   1.01764
 Alpha virt. eigenvalues --    1.04957   1.18067   1.24107   1.40765   1.42879
 Alpha virt. eigenvalues --    1.59454   1.68991   2.22264   2.25673   2.40017
 Alpha virt. eigenvalues --    2.55862   2.57247   2.91898   2.99033   3.24049
 Alpha virt. eigenvalues --    3.30027   3.59101   3.70511   3.91045
          Condensed to atoms (all electrons):
               1          2          3          4
     1  H    0.519373   0.322864  -0.028748   0.001228
     2  O    0.322864   7.784541   0.106626  -0.028748
     3  O   -0.028748   0.106626   7.784541   0.322864
     4  H    0.001228  -0.028748   0.322864   0.519373
 Mulliken charges:
               1
     1  H    0.185283
     2  O   -0.185283
     3  O   -0.185283
     4  H    0.185283
 Sum of Mulliken charges =   0.00000
 Mulliken charges with hydrogens summed into heavy atoms:
               1
     2  O    0.000000
     3  O    0.000000
 Atomic Valencies and Mayer Atomic Bond Orders:
               1          2          3          4
     1  H    1.002940   0.976721   0.021946   0.004273
     2  O    0.976721   1.949484   0.950817   0.021946
     3  O    0.021946   0.950817   1.949484   0.976721
     4  H    0.004273   0.021946   0.976721   1.002940
 Lowdin Atomic Charges:
               1
     1  H    0.063378
     2  O   -0.063378
     3  O   -0.063378
     4  H    0.063378
 Sum of Lowdin charges  =   0.00000
 Lowdin atomic charges with hydrogens summed into heavy atoms:
               1
     1  H    0.000000
     2  O    0.000000
     3  O    0.000000
     4  H    0.000000
 Sum of Lowdin charges  =   0.00000
 Dipole moment from Lowdin charges (Debye):
    X=     0.0000    Y=     0.0000    Z=     0.2727  Tot=     0.2727
 Electronic spatial extent (au):  <R**2>=             61.3426
 Charge=              0.0000 electrons
 Dipole moment (field-independent basis, Debye):
    X=              0.0000    Y=              0.0000    Z=              1.7075  Tot=              1.7075
 Quadrupole moment (field-independent basis, Debye-Ang):
   XX=             -9.3178   YY=            -10.4151   ZZ=            -11.4322
   XY=              3.2916   XZ=              0.0000   YZ=              0.0000
 Traceless Quadrupole moment (field-independent basis, Debye-Ang):
   XX=              1.0706   YY=             -0.0267   ZZ=             -1.0439
   XY=              3.2916   XZ=              0.0000   YZ=              0.0000
 Octapole moment (field-independent basis, Debye-Ang**2):
  XXX=              0.0000  YYY=              0.0000  ZZZ=              0.9624  XYY=              0.0000
  XXY=              0.0000  XXZ=              1.1307  XZZ=              0.0000  YZZ=              0.0000
  YYZ=              2.0097  XYZ=              1.3745
 Hexadecapole moment (field-independent basis, Debye-Ang**3):
 XXXX=             -9.0499 YYYY=            -37.4854 ZZZZ=             -8.9769 XXXY=              0.2693
 XXXZ=              0.0000 YYYX=              1.8209 YYYZ=              0.0000 ZZZX=              0.0000
 ZZZY=              0.0000 XXYY=             -6.6782 XXZZ=             -2.8402 YYZZ=             -8.4022
 XXYZ=              0.0000 YYXZ=              0.0000 ZZXY=             -0.0788
 N-N= 3.889319481544D+01 E-N=-4.360018887224D+02  KE= 1.506483261080D+02
 Symmetry A    KE= 7.726559453128D+01
 Symmetry B    KE= 7.338273157676D+01
 There are a total of       31552 grid points.
 ElSum from          density=       18.0000030551
 ElSum from atomic densities=       18.0000197270
 Hirshfeld populations at iteration   1 (CA, CB, DipXYZ):
               1          2          3          4          5
     1  H    0.408497   0.408497   0.174947   0.094507   0.095862
     2  O    4.091504   4.091504   0.116573  -0.149569   0.085128
     3  O    4.091504   4.091504  -0.116573   0.149569   0.085128
     4  H    0.408497   0.408497  -0.174947  -0.094507   0.095862
       Tot   9.000002   9.000002   0.000000   0.000000   0.361980

 Dip from Atomic Chgs              0.000000   0.000000   0.309750
         Total Dipole              0.000000   0.000000   0.671731

 Hirshfeld charges, spin densities, dipoles, and CM5 charges using IRadAn=      4:
              Q-H        S-H        Dx         Dy         Dz        Q-CM5   
     1  H    0.183006   0.000000   0.174947   0.094507   0.095862   0.371312
     2  O   -0.183008   0.000000   0.116573  -0.149569   0.085128  -0.371313
     3  O   -0.183008   0.000000  -0.116573   0.149569   0.085128  -0.371313
     4  H    0.183006   0.000000  -0.174947  -0.094507   0.095862   0.371312
       Tot  -0.000003   0.000000   0.000000   0.000000   0.361980  -0.000003
 Hirshfeld charges with hydrogens summed into heavy atoms:
              Q-H       Q-CM5   
     2  O   -0.000002  -0.000002
     3  O   -0.000002  -0.000002
 
 EQQ= 0.000000000000E+00 EQD= 0.000000000000E+00 EDD= 0.301598555565E-02
 EQQ+QD+DD= 0.301598555565E-02
 
 No NMR shielding tensors so no spin-rotation constants.
 Leave Link  601 at Thu Feb  4 12:52:16 2016, MaxMem=    33554432 cpu:         0.4
 (Enter /usr/local/research/Gaussian09/g09-revD.01/g09/l701.exe)
 Compute integral first derivatives.
 ... and contract with generalized density number  0.
 DipInt: DoE/N= T T RetVal/Mat= T F Init=T NMatP=  1 IDeriv=0 Min/MaxMlt=  1  1
 Entering OneElI...
 Multipole integrals L=1 to 1 MinM= 0 MaxM= 0.
 Requested accuracy = 0.1000D-12
 PrsmSu:  NPrtUS=   1 ThrOK=F IAlg=1 NPAlg=1 LenDen=           0.
 Prism:   IPart=     0 DynPar=F LinDyn=F Incr=           1.
 PRISM was handed    33538411 working-precision words and   171 shell-pairs
 IPart=  0 NShTot=         171 NBatch=          25 AvBLen=         6.8
 PrSmSu:  NxtVal=              2.
 Entering OneElI...
 Calculate overlap and kinetic energy integrals
    NBasis =  40  MinDer = 1  MaxDer = 1
 Requested accuracy = 0.1000D-12
 PrsmSu:  NPrtUS=   1 ThrOK=F IAlg=1 NPAlg=1 LenDen=           0.
 Prism:   IPart=     0 DynPar=F LinDyn=F Incr=           1.
 PRISM was handed    33536436 working-precision words and   171 shell-pairs
 IPart=  0 NShTot=         171 NBatch=          24 AvBLen=         7.1
 PrSmSu:  NxtVal=              2.
 Entering OneElI...
 Calculate potential energy integrals
    NBasis =  40  MinDer = 1  MaxDer = 1
 Requested accuracy = 0.1000D-12
 PrsmSu:  NPrtUS=   1 ThrOK=F IAlg=1 NPAlg=1 LenDen=           0.
 Prism:   IPart=     0 DynPar=F LinDyn=F Incr=           6.
 PRISM was handed    33538223 working-precision words and   171 shell-pairs
 IPart=  0 NShTot=         684 NBatch=         171 AvBLen=         4.0
 PrSmSu:  NxtVal=              7.
   2 Symmetry operations used in ECPInt.
 ECPInt:  NShTT=     171 NPrTT=     627 LenC2=     172 LenP2D=     590.
 LDataN:  DoStor=F MaxTD1= 5 Len=  102
 LDataN:  DoStor=T MaxTD1= 5 Len=  102
 ECPSu:  NPrtUS=   1 ThrOK=F
 FXYZ after ECPSu
 I=    0 X=   0.000000000000D+00 Y=   0.000000000000D+00 Z=   0.000000000000D+00
 I=    1 X=   0.000000000000D+00 Y=   0.000000000000D+00 Z=   0.000000000000D+00
 I=    2 X=   0.000000000000D+00 Y=   0.000000000000D+00 Z=   0.000000000000D+00
 I=    3 X=   0.000000000000D+00 Y=   0.000000000000D+00 Z=   0.000000000000D+00
 I=    4 X=   0.000000000000D+00 Y=   0.000000000000D+00 Z=   0.000000000000D+00
 l701 out
 I=    0 X=   0.000000000000D+00 Y=   0.000000000000D+00 Z=   6.717763402866D-01
 I=    1 X=   3.457768933992D+00 Y=   1.960380138113D+00 Z=   1.950579347061D+00
 I=    2 X=  -2.726207419681D+00 Y=   8.059364935049D+00 Z=  -1.950579347061D+00
 I=    3 X=   2.726207419681D+00 Y=  -8.059364935049D+00 Z=  -1.950579347061D+00
 I=    4 X=  -3.457768933992D+00 Y=  -1.960380138113D+00 Z=   1.950579347061D+00
 Leave Link  701 at Thu Feb  4 12:52:17 2016, MaxMem=    33554432 cpu:         0.2
 (Enter /usr/local/research/Gaussian09/g09-revD.01/g09/l702.exe)
 L702 exits ... SP integral derivatives will be done elsewhere.
 Leave Link  702 at Thu Feb  4 12:52:17 2016, MaxMem=    33554432 cpu:         0.1
 (Enter /usr/local/research/Gaussian09/g09-revD.01/g09/l703.exe)
 Compute integral first derivatives, UseDBF=F ICtDFT=           0.
 Integral derivatives from FoFJK, PRISM(SPDF).
 ICntrl=      2127.
 Calling FoFJK, ICntrl=      2127 FMM=F ISym2X=1 I1Cent= 0 IOpClX= 0 NMat=1 NMatS=1 NMatT=0.
 FoFJK:  IHMeth= 1 ICntrl=    2127 DoSepK=F KAlg= 0 I1Cent=   0 FoldK=F
 IRaf=         0 NMat=   1 IRICut=       1 DoRegI=T DoRafI=F ISym2E= 1.
 FoFCou: FMM=F IPFlag=           0 FMFlag=      100000 FMFlg1=         800
         NFxFlg=           0 DoJE=F BraDBF=F KetDBF=F FulRan=T
         wScrn=  0.000000 ICntrl=    2127 IOpCl=  0 I1Cent=           0 NGrid=           0
         NMat0=    1 NMatS0=      1 NMatT0=    0 NMatD0=    1 NMtDS0=    0 NMtDT0=    0
 Petite list used in FoFCou.
 FoFCou:  KetSym=F NOpSet=  2 NOpAb=2 NOp=  2.
 FoFCou:  CnvScl= 1.00D+00 Thresh= 1.00D-10 IAcrcy=      10.
 PrismS was handed    33538048 working-precision words and   171 shell-pairs
 FoFCou: LinMIO=F DoNuc=F BraDBF=F KetDBF=F HaveP=T PDBF=F HaveZ=T HaveW=F
         NIJTC =       6 NIJTAt=       0 NIJTCD=       0 NIJTT =       6
         IJTBeg=       1 IJTEnd=       6 KLTBeg=       1 KLTEnd=       6
         IPTBeg=       1 IPTEnd=       6 IPTBCv=       1 IPTECv=       6
         IZTBeg=       1 IZTEnd=       6 IZTBCv=       1 IZTECv=       6
         IWTBeg=       7 IWTEnd=       6 IWTBCv=       7 IWTECv=       6
         INTBeg=       1 INTEnd=       0 IFTBCv=       1 IFTECv=       6
 NCel replicated for PrismC:     1
 CoulSu:  IncDef=  1024 NBBP=          14706 NTPThr=   100 NPartT=    1 Incr=         147 LDynOK=F.
 CoulSu:  NPrtUS=   1 ThrOK=F IAlg=1 NPAlg=1 LenDen=           0 LWGrdD=           0 DoCopy=F.
 Enter PrismC: JobTyp=21 DoJE=F Cont=F.
 PrismC:  IPart=     0 DynPar=F LinDyn=F Incr=         147 UseFst=F UseS4=T IGathr=2.
 PrismC was handed    33537846 working-precision words and   171 shell-pairs
 IPart=  0 NShTot=        7327 NShNF=        7327 NShFF=           0 NBatch=         408 AvBLen=        18.0
 CoulSu:  NxtVal=            148.
 ReadGW:  IGet=0 IStart=           1 Next=           1 LGW=           0.
 Remaining memory in FofDFT       32.00 Mw
 CkSvGd:  ISavGI=        -1 IRadAn=       4 IRASav=       0 ISavGd=        -1.
 CalDSu:  NPrtUS=   1 ThrOK=F IAlg=1 NPAlg=1 DoDPD=F LenP=         820 LenD1P=             0.
 IPart=  0 IRanGd=          0 ScrnBf=T ScrnGd=T RCrit=4.00D+00 DoMicB=T.
 IPart=  0        15123 of        15922 points in      33 batches and      120 microbatches, Max-NSigAt=       4 Max-NSgAt2=       4
 Forces at end of L703
 I=    0 X=   0.000000000000D+00 Y=   0.000000000000D+00 Z=   6.717763402866D-01
 I=    1 X=  -1.772086742132D-02 Y=   8.444509768538D-03 Z=  -1.301689974668D-02
 I=    2 X=   3.587863892787D-02 Y=  -5.063471281108D-02 Z=   1.301689974669D-02
 I=    3 X=  -3.587863892784D-02 Y=   5.063471281109D-02 Z=   1.301689974668D-02
 I=    4 X=   1.772086742130D-02 Y=  -8.444509768543D-03 Z=  -1.301689974667D-02
 Leave Link  703 at Thu Feb  4 12:52:17 2016, MaxMem=    33554432 cpu:         0.5
 (Enter /usr/local/research/Gaussian09/g09-revD.01/g09/l716.exe)
 FrcOut:
 IF    =    87 IFX   =    99 IFXYZ =   111
 IFFX  =   123 IFFFX =   123 IFLen =    12
 IFFLen=     0 IFFFLn=     0 IEDerv=   123
 LEDerv=   629 IFroze=   910 ICStrt=  3927
 Dipole        = 2.22044605D-16 1.11022302D-15 6.71776340D-01
 Quadrupole    = 7.95950462D-01-1.98677646D-02-7.76082698D-01
                 2.44723881D+00 8.19185432D-17 6.10622664D-16
 Forces in standard orientation:
 -------------------------------------------------------------------
 Center     Atomic                   Forces (Hartrees/Bohr)
 Number     Number              X              Y              Z
 -------------------------------------------------------------------
      1        1          -0.017720867    0.008444510   -0.013016900
      2        8           0.035878639   -0.050634713    0.013016900
      3        8          -0.035878639    0.050634713    0.013016900
      4        1           0.017720867   -0.008444510   -0.013016900
 -------------------------------------------------------------------
 ***** Axes restored to original set *****
 Rotating derivatives, DoTrsp=F IDiff=-1 LEDeriv=    628 LFDPrp=       0 LDFDPr=       0.
 -------------------------------------------------------------------
 Center     Atomic                   Forces (Hartrees/Bohr)
 Number     Number              X              Y              Z
 -------------------------------------------------------------------
      1        1           0.018848420   -0.005484153    0.013016900
      2        8          -0.043556048    0.044204316   -0.013016900
      3        8           0.043556048   -0.044204316   -0.013016900
      4        1          -0.018848420    0.005484153    0.013016900
 -------------------------------------------------------------------
 Cartesian Forces:  Max     0.044204316 RMS     0.027614516
 Final forces over variables, Energy=-1.51256358D+02:
  0.00000000D+00 0.00000000D+00 0.00000000D+00 0.00000000D+00
  0.00000000D+00 0.00000000D+00
 Leave Link  716 at Thu Feb  4 12:52:18 2016, MaxMem=    33554432 cpu:         0.0
 (Enter /usr/local/research/Gaussian09/g09-revD.01/g09/l103.exe)

 GradGradGradGradGradGradGradGradGradGradGradGradGradGradGradGradGradGrad
 Berny optimization.
 FormGI is forming the generalized inverse of G from B-inverse, IUseBI=4.
 Internal  Forces:  Max     0.042188677 RMS     0.025587700
 Search for a local minimum.
 Step number   1 out of a maximum of   20
 All quantities printed in internal units (Hartrees-Bohrs-Radians)
 RMS Force = .25588D-01 SwitMx=.10000D-02 MixMth= 1
 Mixed Optimization -- RFO/linear search
 Second derivative matrix not updated -- first step.
 The second derivative matrix:
                          R1        R2        R3        A1        A2
           R1           0.57681
           R2           0.00000   0.57205
           R3           0.00000   0.00000   0.57681
           A1           0.00000   0.00000   0.00000   0.16000
           A2           0.00000   0.00000   0.00000   0.00000   0.16000
           D1           0.00000   0.00000   0.00000   0.00000   0.00000
                          D1
           D1           0.02088
 ITU=  0
     Eigenvalues ---    0.02088   0.16000   0.16000   0.57205   0.57681
     Eigenvalues ---    0.57681
 RFO step:  Lambda=-1.32526284D-02 EMin= 2.08848982D-02
 Linear search not attempted -- first point.
 Iteration  1 RMS(Cart)=  0.11418016 RMS(Int)=  0.00869522
 Iteration  2 RMS(Cart)=  0.01022994 RMS(Int)=  0.00002293
 Iteration  3 RMS(Cart)=  0.00002467 RMS(Int)=  0.00000000
 Iteration  4 RMS(Cart)=  0.00000000 RMS(Int)=  0.00000000
 ITry= 1 IFail=0 DXMaxC= 1.56D-01 DCOld= 1.00D+10 DXMaxT= 3.00D-01 DXLimC= 3.00D+00 Rises=F
 ClnCor:  largest displacement from symmetrization is 3.05D-14 for atom     4.
 Variable       Old X    -DE/DX   Delta X   Delta X   Delta X     New X
                                 (Linear)    (Quad)   (Total)
    R1        1.79524   0.01779   0.00000   0.03015   0.03015   1.82539
    R2        2.53223   0.04219   0.00000   0.07208   0.07208   2.60431
    R3        1.79524   0.01779   0.00000   0.03015   0.03015   1.82539
    A1        1.91063  -0.02737   0.00000  -0.15801  -0.15801   1.75262
    A2        1.91063  -0.02737   0.00000  -0.15801  -0.15801   1.75262
    D1        2.09440  -0.00408   0.00000  -0.11957  -0.11957   1.97483
         Item               Value     Threshold  Converged?
 Maximum Force            0.042189     0.000450     NO 
 RMS     Force            0.025588     0.000300     NO 
 Maximum Displacement     0.156364     0.001800     NO 
 RMS     Displacement     0.119923     0.001200     NO 
 Predicted change in Energy=-7.098385D-03
 Lowest energy point so far.  Saving SCF results.
 GradGradGradGradGradGradGradGradGradGradGradGradGradGradGradGradGradGrad

 Leave Link  103 at Thu Feb  4 12:52:18 2016, MaxMem=    33554432 cpu:         0.0
 (Enter /usr/local/research/Gaussian09/g09-revD.01/g09/l202.exe)
                          Input orientation:                          
 ---------------------------------------------------------------------
 Center     Atomic      Atomic             Coordinates (Angstroms)
 Number     Number       Type             X           Y           Z
 ---------------------------------------------------------------------
      1          1           0        0.585505    1.015839    0.435820
      2          8           0       -0.150237    0.672494   -0.087505
      3          8           0        0.150237   -0.672494   -0.087505
      4          1           0       -0.585505   -1.015839    0.435820
 ---------------------------------------------------------------------
                    Distance matrix (angstroms):
                    1          2          3          4
     1  H    0.000000
     2  O    0.965956   0.000000
     3  O    1.820383   1.378143   0.000000
     4  H    2.344989   1.820383   0.965956   0.000000
 Stoichiometry    H2O2
 Framework group  C2[X(H2O2)]
 Deg. of freedom     4
 Full point group                 C2      NOp   2
 RotChk:  IX=0 Diff= 8.24D-02
 Largest Abelian subgroup         C2      NOp   2
 Largest concise Abelian subgroup C2      NOp   2
                         Standard orientation:                         
 ---------------------------------------------------------------------
 Center     Atomic      Atomic             Coordinates (Angstroms)
 Number     Number       Type             X           Y           Z
 ---------------------------------------------------------------------
      1          1           0        0.792901    0.863743    0.465177
      2          8           0        0.000000    0.689072   -0.058147
      3          8           0        0.000000   -0.689072   -0.058147
      4          1           0       -0.792901   -0.863743    0.465177
 ---------------------------------------------------------------------
 Rotational constants (GHZ):    303.7196931     29.1536075     28.1385136
 Leave Link  202 at Thu Feb  4 12:52:18 2016, MaxMem=    33554432 cpu:         0.0
 (Enter /usr/local/research/Gaussian09/g09-revD.01/g09/l301.exe)
 Standard basis: def2SVP (5D, 7F)
 Ernie: Thresh=  0.10000D-02 Tol=  0.10000D-05 Strict=F.
 There are    20 symmetry adapted cartesian basis functions of A   symmetry.
 There are    20 symmetry adapted cartesian basis functions of B   symmetry.
 There are    19 symmetry adapted basis functions of A   symmetry.
 There are    19 symmetry adapted basis functions of B   symmetry.
    38 basis functions,    64 primitive gaussians,    40 cartesian basis functions
     9 alpha electrons        9 beta electrons
       nuclear repulsion energy        38.2166513201 Hartrees.
 IExCor= 1009 DFT=T Ex+Corr=PBE1PBE ExCW=0 ScaHFX=  0.250000
 ScaDFX=  0.750000  0.750000  1.000000  1.000000 ScalE2=  1.000000  1.000000
 IRadAn=      0 IRanWt=     -1 IRanGd=            0 ICorTp=0 IEmpDi=  4
 NAtoms=    4 NActive=    4 NUniq=    2 SFac= 4.00D+00 NAtFMM=   60 NAOKFM=F Big=F
 Integral buffers will be    131072 words long.
 Raffenetti 2 integral format.
 Two-electron integral symmetry is turned on.
 Leave Link  301 at Thu Feb  4 12:52:18 2016, MaxMem=    33554432 cpu:         0.1
 (Enter /usr/local/research/Gaussian09/g09-revD.01/g09/l302.exe)
 NPDir=0 NMtPBC=     1 NCelOv=     1 NCel=       1 NClECP=     1 NCelD=      1
         NCelK=      1 NCelE2=     1 NClLst=     1 CellRange=     0.0.
 One-electron integrals computed using PRISM.
 One-electron integral symmetry used in STVInt
   2 Symmetry operations used in ECPInt.
 ECPInt:  NShTT=     171 NPrTT=     627 LenC2=     172 LenP2D=     591.
 LDataN:  DoStor=T MaxTD1= 4 Len=   56
 NBasis=    38 RedAO= T EigKep=  1.32D-02  NBF=    19    19
 NBsUse=    38 1.00D-06 EigRej= -1.00D+00 NBFU=    19    19
 Precomputing XC quadrature grid using
 IXCGrd= 4 IRadAn=           0 IRanWt=          -1 IRanGd=           0 AccXCQ= 0.00D+00.
 Generated NRdTot=       0 NPtTot=           0 NUsed=           0 NTot=          32
 NSgBfM=    40    40    40    40    40 MxSgAt=     4 MxSgA2=     4.
 Leave Link  302 at Thu Feb  4 12:52:18 2016, MaxMem=    33554432 cpu:         0.3
 (Enter /usr/local/research/Gaussian09/g09-revD.01/g09/l303.exe)
 DipDrv:  MaxL=1.
 Leave Link  303 at Thu Feb  4 12:52:18 2016, MaxMem=    33554432 cpu:         0.1
 (Enter /usr/local/research/Gaussian09/g09-revD.01/g09/l401.exe)
 Initial guess from the checkpoint file:  "g09-h2o2.chk"
 B after Tr=     0.000000    0.000000    0.000000
         Rot=    0.999941    0.000000    0.000000    0.010883 Ang=   1.25 deg.
 Guess basis will be translated and rotated to current coordinates.
 JPrj=2 DoOrth=T DoCkMO=T.
 Initial guess orbital symmetries:
       Occupied  (B) (A) (A) (B) (A) (B) (A) (A) (B)
       Virtual   (A) (A) (A) (A) (A) (A) (A) (A) (A) (A) (A) (A)
                 (A) (A) (B) (B) (B) (B) (B) (B) (B) (B) (B) (B)
                 (B) (B) (B) (B) (B)
 The electronic state of the initial guess is 1-A.
 Generating alternative initial guess.
 ExpMin= 1.22D-01 ExpMax= 2.27D+03 ExpMxC= 3.41D+02 IAcc=1 IRadAn=         1 AccDes= 0.00D+00
 Harris functional with IExCor= 1009 and IRadAn=       1 diagonalized for initial guess.
 HarFok:  IExCor= 1009 AccDes= 0.00D+00 IRadAn=         1 IDoV= 1 UseB2=F ITyADJ=14
 ICtDFT=  3500011 ScaDFX=  1.000000  1.000000  1.000000  1.000000
 FoFCou: FMM=F IPFlag=           0 FMFlag=      100000 FMFlg1=           0
         NFxFlg=           0 DoJE=T BraDBF=F KetDBF=T FulRan=T
         wScrn=  0.000000 ICntrl=     500 IOpCl=  0 I1Cent=   200000004 NGrid=           0
         NMat0=    1 NMatS0=      1 NMatT0=    0 NMatD0=    1 NMtDS0=    0 NMtDT0=    0
 Petite list used in FoFCou.
 Harris En= -151.304213443546    
 Leave Link  401 at Thu Feb  4 12:52:19 2016, MaxMem=    33554432 cpu:         0.4
 (Enter /usr/local/research/Gaussian09/g09-revD.01/g09/l502.exe)
 Closed shell SCF:
 Using DIIS extrapolation, IDIIS=  1040.
 Integral symmetry usage will be decided dynamically.
 Keep R1 ints in memory in symmetry-blocked form, NReq=1161211.
 IVT=       23954 IEndB=       23954 NGot=    33554432 MDV=    33391000
 LenX=    33391000 LenY=    33388959
 Requested convergence on RMS density matrix=1.00D-08 within 128 cycles.
 Requested convergence on MAX density matrix=1.00D-06.
 Requested convergence on             energy=1.00D-06.
 No special actions if energy rises.
 FoFCou: FMM=F IPFlag=           0 FMFlag=           0 FMFlg1=           0
         NFxFlg=           0 DoJE=F BraDBF=F KetDBF=F FulRan=T
         wScrn=  0.000000 ICntrl=     600 IOpCl=  0 I1Cent=           0 NGrid=           0
         NMat0=    1 NMatS0=    741 NMatT0=    0 NMatD0=    1 NMtDS0=    0 NMtDT0=    0
 Petite list used in FoFCou.
 Integral accuracy reduced to 1.0D-05 until final iterations.

 Cycle   1  Pass 0  IDiag  1:
 E= -151.256296067655    
 DIIS: error= 1.07D-02 at cycle   1 NSaved=   1.
 NSaved= 1 IEnMin= 1 EnMin= -151.256296067655     IErMin= 1 ErrMin= 1.07D-02
 ErrMax= 1.07D-02  0.00D+00 EMaxC= 1.00D-01 BMatC= 4.89D-03 BMatP= 4.89D-03
 IDIUse=3 WtCom= 8.93D-01 WtEn= 1.07D-01
 Coeff-Com:  0.100D+01
 Coeff-En:   0.100D+01
 Coeff:      0.100D+01
 Recover alternate guess density for next cycle.
 RMSDP=4.55D-03 MaxDP=3.67D-02              OVMax= 0.00D+00

 Cycle   2  Pass 0  IDiag  1:
 E= -151.230620627286     Delta-E=        0.025675440369 Rises=F Damp=F
 Switch densities from cycles 1 and 2 for lowest energy.
 DIIS: error= 2.40D-02 at cycle   2 NSaved=   2.
 NSaved= 2 IEnMin= 1 EnMin= -151.256296067655     IErMin= 1 ErrMin= 1.07D-02
 ErrMax= 2.40D-02  0.00D+00 EMaxC= 1.00D+00 BMatC= 4.29D-02 BMatP= 4.89D-03
 IDIUse=1 WtCom= 1.00D+00 WtEn= 0.00D+00
 Coeff-Com:  0.944D+00 0.564D-01
 Coeff:      0.944D+00 0.564D-01
 Gap=     0.819 Goal=   None    Shift=    0.000
 RMSDP=2.71D-03 MaxDP=1.92D-02 DE= 2.57D-02 OVMax= 2.29D-02

 Cycle   3  Pass 0  IDiag  1:
 E= -151.262155926910     Delta-E=       -0.031535299624 Rises=F Damp=F
 DIIS: error= 2.28D-03 at cycle   3 NSaved=   3.
 NSaved= 3 IEnMin= 3 EnMin= -151.262155926910     IErMin= 3 ErrMin= 2.28D-03
 ErrMax= 2.28D-03  0.00D+00 EMaxC= 1.00D+00 BMatC= 4.28D-04 BMatP= 4.89D-03
 IDIUse=1 WtCom= 1.00D+00 WtEn= 0.00D+00
 Coeff-Com: -0.257D-01 0.780D-01 0.948D+00
 Coeff:     -0.257D-01 0.780D-01 0.948D+00
 Gap=     0.346 Goal=   None    Shift=    0.000
 RMSDP=5.69D-04 MaxDP=5.16D-03 DE=-3.15D-02 OVMax= 6.15D-03

 Cycle   4  Pass 0  IDiag  1:
 E= -151.262474609262     Delta-E=       -0.000318682352 Rises=F Damp=F
 DIIS: error= 9.21D-04 at cycle   4 NSaved=   4.
 NSaved= 4 IEnMin= 4 EnMin= -151.262474609262     IErMin= 4 ErrMin= 9.21D-04
 ErrMax= 9.21D-04  0.00D+00 EMaxC= 1.00D+00 BMatC= 5.70D-05 BMatP= 4.28D-04
 IDIUse=1 WtCom= 1.00D+00 WtEn= 0.00D+00
 Coeff-Com: -0.258D-01 0.191D-01 0.352D+00 0.655D+00
 Coeff:     -0.258D-01 0.191D-01 0.352D+00 0.655D+00
 Gap=     0.345 Goal=   None    Shift=    0.000
 RMSDP=1.32D-04 MaxDP=1.19D-03 DE=-3.19D-04 OVMax= 1.44D-03

 Cycle   5  Pass 0  IDiag  1:
 E= -151.262515162003     Delta-E=       -0.000040552741 Rises=F Damp=F
 DIIS: error= 6.71D-05 at cycle   5 NSaved=   5.
 NSaved= 5 IEnMin= 5 EnMin= -151.262515162003     IErMin= 5 ErrMin= 6.71D-05
 ErrMax= 6.71D-05  0.00D+00 EMaxC= 1.00D+00 BMatC= 2.26D-07 BMatP= 5.70D-05
 IDIUse=1 WtCom= 1.00D+00 WtEn= 0.00D+00
 Coeff-Com:  0.413D-03-0.112D-02-0.190D-01 0.204D-01 0.999D+00
 Coeff:      0.413D-03-0.112D-02-0.190D-01 0.204D-01 0.999D+00
 Gap=     0.345 Goal=   None    Shift=    0.000
 RMSDP=1.62D-05 MaxDP=1.00D-04 DE=-4.06D-05 OVMax= 3.06D-04

 Cycle   6  Pass 0  IDiag  1:
 E= -151.262515443599     Delta-E=       -0.000000281596 Rises=F Damp=F
 DIIS: error= 7.72D-06 at cycle   6 NSaved=   6.
 NSaved= 6 IEnMin= 6 EnMin= -151.262515443599     IErMin= 6 ErrMin= 7.72D-06
 ErrMax= 7.72D-06  0.00D+00 EMaxC= 1.00D+00 BMatC= 2.62D-09 BMatP= 2.26D-07
 IDIUse=1 WtCom= 1.00D+00 WtEn= 0.00D+00
 Coeff-Com:  0.259D-03-0.187D-03-0.454D-02-0.766D-02 0.160D-01 0.996D+00
 Coeff:      0.259D-03-0.187D-03-0.454D-02-0.766D-02 0.160D-01 0.996D+00
 Gap=     0.345 Goal=   None    Shift=    0.000
 RMSDP=4.07D-06 MaxDP=2.54D-05 DE=-2.82D-07 OVMax= 8.84D-05

 Initial convergence to 1.0D-05 achieved.  Increase integral accuracy.
 Cycle   7  Pass 1  IDiag  1:
 E= -151.262503614302     Delta-E=        0.000011829296 Rises=F Damp=F
 DIIS: error= 4.36D-06 at cycle   1 NSaved=   1.
 NSaved= 1 IEnMin= 1 EnMin= -151.262503614302     IErMin= 1 ErrMin= 4.36D-06
 ErrMax= 4.36D-06  0.00D+00 EMaxC= 1.00D+00 BMatC= 8.31D-10 BMatP= 8.31D-10
 IDIUse=1 WtCom= 1.00D+00 WtEn= 0.00D+00
 Coeff-Com:  0.100D+01
 Coeff:      0.100D+01
 Gap=     0.345 Goal=   None    Shift=    0.000
 RMSDP=4.07D-06 MaxDP=2.54D-05 DE= 1.18D-05 OVMax= 1.59D-05

 Cycle   8  Pass 1  IDiag  1:
 E= -151.262503615300     Delta-E=       -0.000000000998 Rises=F Damp=F
 DIIS: error= 1.07D-06 at cycle   2 NSaved=   2.
 NSaved= 2 IEnMin= 2 EnMin= -151.262503615300     IErMin= 2 ErrMin= 1.07D-06
 ErrMax= 1.07D-06  0.00D+00 EMaxC= 1.00D+00 BMatC= 4.94D-11 BMatP= 8.31D-10
 IDIUse=1 WtCom= 1.00D+00 WtEn= 0.00D+00
 Coeff-Com:  0.774D-01 0.923D+00
 Coeff:      0.774D-01 0.923D+00
 Gap=     0.345 Goal=   None    Shift=    0.000
 RMSDP=3.34D-07 MaxDP=2.36D-06 DE=-9.98D-10 OVMax= 5.59D-06

 Cycle   9  Pass 1  IDiag  1:
 E= -151.262503615338     Delta-E=       -0.000000000038 Rises=F Damp=F
 DIIS: error= 5.68D-07 at cycle   3 NSaved=   3.
 NSaved= 3 IEnMin= 3 EnMin= -151.262503615338     IErMin= 3 ErrMin= 5.68D-07
 ErrMax= 5.68D-07  0.00D+00 EMaxC= 1.00D+00 BMatC= 3.31D-11 BMatP= 4.94D-11
 IDIUse=1 WtCom= 1.00D+00 WtEn= 0.00D+00
 Coeff-Com: -0.322D-01 0.440D+00 0.592D+00
 Coeff:     -0.322D-01 0.440D+00 0.592D+00
 Gap=     0.345 Goal=   None    Shift=    0.000
 RMSDP=1.16D-07 MaxDP=1.14D-06 DE=-3.81D-11 OVMax= 1.33D-06

 Cycle  10  Pass 1  IDiag  1:
 E= -151.262503615364     Delta-E=       -0.000000000025 Rises=F Damp=F
 DIIS: error= 8.57D-08 at cycle   4 NSaved=   4.
 NSaved= 4 IEnMin= 4 EnMin= -151.262503615364     IErMin= 4 ErrMin= 8.57D-08
 ErrMax= 8.57D-08  0.00D+00 EMaxC= 1.00D+00 BMatC= 7.13D-13 BMatP= 3.31D-11
 IDIUse=1 WtCom= 1.00D+00 WtEn= 0.00D+00
 Coeff-Com: -0.197D-01 0.599D-01 0.150D+00 0.810D+00
 Coeff:     -0.197D-01 0.599D-01 0.150D+00 0.810D+00
 Gap=     0.345 Goal=   None    Shift=    0.000
 RMSDP=2.32D-08 MaxDP=1.73D-07 DE=-2.54D-11 OVMax= 5.00D-07

 Cycle  11  Pass 1  IDiag  1:
 E= -151.262503615364     Delta-E=       -0.000000000001 Rises=F Damp=F
 DIIS: error= 1.30D-08 at cycle   5 NSaved=   5.
 NSaved= 5 IEnMin= 5 EnMin= -151.262503615364     IErMin= 5 ErrMin= 1.30D-08
 ErrMax= 1.30D-08  0.00D+00 EMaxC= 1.00D+00 BMatC= 1.11D-14 BMatP= 7.13D-13
 IDIUse=1 WtCom= 1.00D+00 WtEn= 0.00D+00
 Coeff-Com:  0.192D-02-0.197D-01-0.380D-01-0.417D-01 0.110D+01
 Coeff:      0.192D-02-0.197D-01-0.380D-01-0.417D-01 0.110D+01
 Gap=     0.345 Goal=   None    Shift=    0.000
 RMSDP=8.57D-09 MaxDP=6.02D-08 DE=-6.54D-13 OVMax= 1.96D-07

 SCF Done:  E(RPBE1PBE) =  -151.262503615     A.U. after   11 cycles
            NFock= 11  Conv=0.86D-08     -V/T= 2.0045
 KE= 1.505865426156D+02 PE=-4.346210933640D+02 EE= 9.455539581294D+01
 Leave Link  502 at Thu Feb  4 12:52:20 2016, MaxMem=    33554432 cpu:         1.3
 (Enter /usr/local/research/Gaussian09/g09-revD.01/g09/l701.exe)
 Compute integral first derivatives.
 ... and contract with generalized density number  0.
 DipInt: DoE/N= T T RetVal/Mat= T F Init=T NMatP=  1 IDeriv=0 Min/MaxMlt=  1  1
 Entering OneElI...
 Multipole integrals L=1 to 1 MinM= 0 MaxM= 0.
 Requested accuracy = 0.1000D-12
 PrsmSu:  NPrtUS=   1 ThrOK=F IAlg=1 NPAlg=1 LenDen=           0.
 Prism:   IPart=     0 DynPar=F LinDyn=F Incr=           1.
 PRISM was handed    33538355 working-precision words and   171 shell-pairs
 IPart=  0 NShTot=         171 NBatch=          25 AvBLen=         6.8
 PrSmSu:  NxtVal=              2.
 Entering OneElI...
 Calculate overlap and kinetic energy integrals
    NBasis =  40  MinDer = 1  MaxDer = 1
 Requested accuracy = 0.1000D-12
 PrsmSu:  NPrtUS=   1 ThrOK=F IAlg=1 NPAlg=1 LenDen=           0.
 Prism:   IPart=     0 DynPar=F LinDyn=F Incr=           1.
 PRISM was handed    33536436 working-precision words and   171 shell-pairs
 IPart=  0 NShTot=         171 NBatch=          24 AvBLen=         7.1
 PrSmSu:  NxtVal=              2.
 Entering OneElI...
 Calculate potential energy integrals
    NBasis =  40  MinDer = 1  MaxDer = 1
 Requested accuracy = 0.1000D-12
 PrsmSu:  NPrtUS=   1 ThrOK=F IAlg=1 NPAlg=1 LenDen=           0.
 Prism:   IPart=     0 DynPar=F LinDyn=F Incr=           6.
 PRISM was handed    33538251 working-precision words and   171 shell-pairs
 IPart=  0 NShTot=         684 NBatch=         171 AvBLen=         4.0
 PrSmSu:  NxtVal=              7.
   2 Symmetry operations used in ECPInt.
 ECPInt:  NShTT=     171 NPrTT=     627 LenC2=     172 LenP2D=     591.
 LDataN:  DoStor=F MaxTD1= 5 Len=  102
 LDataN:  DoStor=T MaxTD1= 5 Len=  102
 ECPSu:  NPrtUS=   1 ThrOK=F
 FXYZ after ECPSu
 I=    0 X=   0.000000000000D+00 Y=   0.000000000000D+00 Z=   0.000000000000D+00
 I=    1 X=   0.000000000000D+00 Y=   0.000000000000D+00 Z=   0.000000000000D+00
 I=    2 X=   0.000000000000D+00 Y=   0.000000000000D+00 Z=   0.000000000000D+00
 I=    3 X=   0.000000000000D+00 Y=   0.000000000000D+00 Z=   0.000000000000D+00
 I=    4 X=   0.000000000000D+00 Y=   0.000000000000D+00 Z=   0.000000000000D+00
 l701 out
 I=    0 X=   0.000000000000D+00 Y=   0.000000000000D+00 Z=   7.468626524821D-01
 I=    1 X=   3.495209527816D+00 Y=   1.030135024985D+00 Z=   2.323039165047D+00
 I=    2 X=  -2.978592780985D+00 Y=   8.348531036601D+00 Z=  -2.323039165047D+00
 I=    3 X=   2.978592780985D+00 Y=  -8.348531036601D+00 Z=  -2.323039165047D+00
 I=    4 X=  -3.495209527816D+00 Y=  -1.030135024985D+00 Z=   2.323039165047D+00
 Leave Link  701 at Thu Feb  4 12:52:20 2016, MaxMem=    33554432 cpu:         0.2
 (Enter /usr/local/research/Gaussian09/g09-revD.01/g09/l702.exe)
 L702 exits ... SP integral derivatives will be done elsewhere.
 Leave Link  702 at Thu Feb  4 12:52:20 2016, MaxMem=    33554432 cpu:         0.0
 (Enter /usr/local/research/Gaussian09/g09-revD.01/g09/l703.exe)
 Compute integral first derivatives, UseDBF=F ICtDFT=           0.
 Integral derivatives from FoFJK, PRISM(SPDF).
 ICntrl=      2127.
 Calling FoFJK, ICntrl=      2127 FMM=F ISym2X=1 I1Cent= 0 IOpClX= 0 NMat=1 NMatS=1 NMatT=0.
 FoFJK:  IHMeth= 1 ICntrl=    2127 DoSepK=F KAlg= 0 I1Cent=   0 FoldK=F
 IRaf=         0 NMat=   1 IRICut=       1 DoRegI=T DoRafI=F ISym2E= 1.
 FoFCou: FMM=F IPFlag=           0 FMFlag=      100000 FMFlg1=         800
         NFxFlg=           0 DoJE=F BraDBF=F KetDBF=F FulRan=T
         wScrn=  0.000000 ICntrl=    2127 IOpCl=  0 I1Cent=           0 NGrid=           0
         NMat0=    1 NMatS0=      1 NMatT0=    0 NMatD0=    1 NMtDS0=    0 NMtDT0=    0
 Petite list used in FoFCou.
 FoFCou:  KetSym=F NOpSet=  2 NOpAb=2 NOp=  2.
 FoFCou:  CnvScl= 1.00D+00 Thresh= 1.00D-10 IAcrcy=      10.
 PrismS was handed    33538048 working-precision words and   171 shell-pairs
 FoFCou: LinMIO=F DoNuc=F BraDBF=F KetDBF=F HaveP=T PDBF=F HaveZ=T HaveW=F
         NIJTC =       6 NIJTAt=       0 NIJTCD=       0 NIJTT =       6
         IJTBeg=       1 IJTEnd=       6 KLTBeg=       1 KLTEnd=       6
         IPTBeg=       1 IPTEnd=       6 IPTBCv=       1 IPTECv=       6
         IZTBeg=       1 IZTEnd=       6 IZTBCv=       1 IZTECv=       6
         IWTBeg=       7 IWTEnd=       6 IWTBCv=       7 IWTECv=       6
         INTBeg=       1 INTEnd=       0 IFTBCv=       1 IFTECv=       6
 NCel replicated for PrismC:     1
 CoulSu:  IncDef=  1024 NBBP=          14706 NTPThr=   100 NPartT=    1 Incr=         147 LDynOK=F.
 CoulSu:  NPrtUS=   1 ThrOK=F IAlg=1 NPAlg=1 LenDen=           0 LWGrdD=           0 DoCopy=F.
 Enter PrismC: JobTyp=21 DoJE=F Cont=F.
 PrismC:  IPart=     0 DynPar=F LinDyn=F Incr=         147 UseFst=F UseS4=T IGathr=2.
 PrismC was handed    33537846 working-precision words and   171 shell-pairs
 IPart=  0 NShTot=        7326 NShNF=        7326 NShFF=           0 NBatch=         408 AvBLen=        18.0
 CoulSu:  NxtVal=            148.
 ReadGW:  IGet=0 IStart=           1 Next=           1 LGW=           0.
 Remaining memory in FofDFT       32.00 Mw
 CkSvGd:  ISavGI=        -1 IRadAn=       4 IRASav=       0 ISavGd=        -1.
 CalDSu:  NPrtUS=   1 ThrOK=F IAlg=1 NPAlg=1 DoDPD=F LenP=         820 LenD1P=             0.
 IPart=  0 IRanGd=          0 ScrnBf=T ScrnGd=T RCrit=4.00D+00 DoMicB=T.
 IPart=  0        15111 of        15776 points in      33 batches and      122 microbatches, Max-NSigAt=       4 Max-NSgAt2=       4
 Forces at end of L703
 I=    0 X=   0.000000000000D+00 Y=   0.000000000000D+00 Z=   7.468626524821D-01
 I=    1 X=  -1.965229120997D-04 Y=  -5.493996236194D-03 Z=   3.446339231266D-04
 I=    2 X=  -6.066929688963D-03 Y=  -2.666476954065D-02 Z=  -3.446339231163D-04
 I=    3 X=   6.066929688962D-03 Y=   2.666476954065D-02 Z=  -3.446339231092D-04
 I=    4 X=   1.965229121041D-04 Y=   5.493996236196D-03 Z=   3.446339231274D-04
 Leave Link  703 at Thu Feb  4 12:52:21 2016, MaxMem=    33554432 cpu:         0.5
 (Enter /usr/local/research/Gaussian09/g09-revD.01/g09/l716.exe)
 FrcOut:
 IF    =    87 IFX   =    99 IFXYZ =   111
 IFFX  =   123 IFFFX =   123 IFLen =    12
 IFFLen=     0 IFFFLn=     0 IEDerv=   123
 LEDerv=   629 IFroze=   910 ICStrt=  3927
 Dipole        =-2.22044605D-16-4.44089210D-16 7.46862652D-01
 Forces in standard orientation:
 -------------------------------------------------------------------
 Center     Atomic                   Forces (Hartrees/Bohr)
 Number     Number              X              Y              Z
 -------------------------------------------------------------------
      1        1          -0.000196523   -0.005493996    0.000344634
      2        8          -0.006066930   -0.026664770   -0.000344634
      3        8           0.006066930    0.026664770   -0.000344634
      4        1           0.000196523    0.005493996    0.000344634
 -------------------------------------------------------------------
 ***** Axes restored to original set *****
 Rotating derivatives, DoTrsp=F IDiff=-1 LEDeriv=    628 LFDPrp=       0 LDFDPr=       0.
 -------------------------------------------------------------------
 Center     Atomic                   Forces (Hartrees/Bohr)
 Number     Number              X              Y              Z
 -------------------------------------------------------------------
      1        1          -0.001006054    0.005404671   -0.000344634
      2        8           0.000107286    0.027346043    0.000344634
      3        8          -0.000107286   -0.027346043    0.000344634
      4        1           0.001006054   -0.005404671   -0.000344634
 -------------------------------------------------------------------
 Cartesian Forces:  Max     0.027346043 RMS     0.011389160
 Final forces over variables, Energy=-1.51262504D+02:
  1.77915517D-02 4.21886772D-02 1.77915517D-02-2.73747912D-02
 -2.73747912D-02-4.08178602D-03
 Leave Link  716 at Thu Feb  4 12:52:21 2016, MaxMem=    33554432 cpu:         0.1
 (Enter /usr/local/research/Gaussian09/g09-revD.01/g09/l103.exe)

 GradGradGradGradGradGradGradGradGradGradGradGradGradGradGradGradGradGrad
 Berny optimization.
 Using GEDIIS/GDIIS optimizer.
 FormGI is forming the generalized inverse of G from B-inverse, IUseBI=4.
 Internal  Forces:  Max     0.032156237 RMS     0.014324299
 Search for a local minimum.
 Step number   2 out of a maximum of   20
 All quantities printed in internal units (Hartrees-Bohrs-Radians)
 RMS Force = .14324D-01 SwitMx=.10000D-02 MixMth= 1
 Mixed Optimization -- RFO/linear search
 Update second derivatives using D2CorX and points    1    2
 DE= -6.15D-03 DEPred=-7.10D-03 R= 8.66D-01
 TightC=F SS=  1.41D+00  RLast= 2.67D-01 DXNew= 5.0454D-01 8.0073D-01
 Trust test= 8.66D-01 RLast= 2.67D-01 DXMaxT set to 5.05D-01
 The second derivative matrix:
                          R1        R2        R3        A1        A2
           R1           0.57233
           R2          -0.04628   0.44107
           R3          -0.00448  -0.04628   0.57233
           A1          -0.00877   0.05815  -0.00877   0.20658
           A2          -0.00877   0.05815  -0.00877   0.04658   0.20658
           D1          -0.00220   0.00495  -0.00220   0.00755   0.00755
                          D1
           D1           0.02201
 ITU=  1  0
 Use linear search instead of GDIIS.
     Eigenvalues ---    0.02151   0.16000   0.22246   0.43731   0.57681
     Eigenvalues ---    0.60282
 RFO step:  Lambda=-2.61739262D-03 EMin= 2.15068247D-02
 Quartic linear search produced a step of -0.06036.
 Iteration  1 RMS(Cart)=  0.04202289 RMS(Int)=  0.00028554
 Iteration  2 RMS(Cart)=  0.00029793 RMS(Int)=  0.00000006
 Iteration  3 RMS(Cart)=  0.00000007 RMS(Int)=  0.00000000
 ITry= 1 IFail=0 DXMaxC= 5.80D-02 DCOld= 1.00D+10 DXMaxT= 5.05D-01 DXLimC= 3.00D+00 Rises=F
 ClnCor:  largest displacement from symmetrization is 3.04D-14 for atom     3.
 Variable       Old X    -DE/DX   Delta X   Delta X   Delta X     New X
                                 (Linear)    (Quad)   (Total)
    R1        1.82539   0.00097  -0.00182   0.00974   0.00792   1.83331
    R2        2.60431   0.03216  -0.00435   0.07209   0.06774   2.67205
    R3        1.82539   0.00097  -0.00182   0.00974   0.00792   1.83331
    A1        1.75262   0.00987   0.00954   0.01434   0.02388   1.77651
    A2        1.75262   0.00987   0.00954   0.01434   0.02388   1.77651
    D1        1.97483   0.00071   0.00722  -0.00277   0.00445   1.97928
         Item               Value     Threshold  Converged?
 Maximum Force            0.032156     0.000450     NO 
 RMS     Force            0.014324     0.000300     NO 
 Maximum Displacement     0.058027     0.001800     NO 
 RMS     Displacement     0.042215     0.001200     NO 
 Predicted change in Energy=-1.341069D-03
 Lowest energy point so far.  Saving SCF results.
 GradGradGradGradGradGradGradGradGradGradGradGradGradGradGradGradGradGrad

 Leave Link  103 at Thu Feb  4 12:52:21 2016, MaxMem=    33554432 cpu:         0.0
 (Enter /usr/local/research/Gaussian09/g09-revD.01/g09/l202.exe)
                          Input orientation:                          
 ---------------------------------------------------------------------
 Center     Atomic      Atomic             Coordinates (Angstroms)
 Number     Number       Type             X           Y           Z
 ---------------------------------------------------------------------
      1          1           0        0.595099    1.046545    0.434844
      2          8           0       -0.142466    0.692492   -0.086529
      3          8           0        0.142466   -0.692492   -0.086529
      4          1           0       -0.595099   -1.046545    0.434844
 ---------------------------------------------------------------------
                    Distance matrix (angstroms):
                    1          2          3          4
     1  H    0.000000
     2  O    0.970148   0.000000
     3  O    1.871084   1.413990   0.000000
     4  H    2.407820   1.871084   0.970148   0.000000
 Stoichiometry    H2O2
 Framework group  C2[X(H2O2)]
 Deg. of freedom     4
 Full point group                 C2      NOp   2
 RotChk:  IX=0 Diff= 2.39D-02
 Largest Abelian subgroup         C2      NOp   2
 Largest concise Abelian subgroup C2      NOp   2
                         Standard orientation:                         
 ---------------------------------------------------------------------
 Center     Atomic      Atomic             Coordinates (Angstroms)
 Number     Number       Type             X           Y           Z
 ---------------------------------------------------------------------
      1          1           0        0.793780    0.905159    0.463443
      2          8           0        0.000000    0.706995   -0.057930
      3          8           0        0.000000   -0.706995   -0.057930
      4          1           0       -0.793780   -0.905159    0.463443
 ---------------------------------------------------------------------
 Rotational constants (GHZ):    304.7489191     27.6407128     26.7236046
 Leave Link  202 at Thu Feb  4 12:52:21 2016, MaxMem=    33554432 cpu:         0.0
 (Enter /usr/local/research/Gaussian09/g09-revD.01/g09/l301.exe)
 Standard basis: def2SVP (5D, 7F)
 Ernie: Thresh=  0.10000D-02 Tol=  0.10000D-05 Strict=F.
 There are    20 symmetry adapted cartesian basis functions of A   symmetry.
 There are    20 symmetry adapted cartesian basis functions of B   symmetry.
 There are    19 symmetry adapted basis functions of A   symmetry.
 There are    19 symmetry adapted basis functions of B   symmetry.
    38 basis functions,    64 primitive gaussians,    40 cartesian basis functions
     9 alpha electrons        9 beta electrons
       nuclear repulsion energy        37.4238562140 Hartrees.
 IExCor= 1009 DFT=T Ex+Corr=PBE1PBE ExCW=0 ScaHFX=  0.250000
 ScaDFX=  0.750000  0.750000  1.000000  1.000000 ScalE2=  1.000000  1.000000
 IRadAn=      0 IRanWt=     -1 IRanGd=            0 ICorTp=0 IEmpDi=  4
 NAtoms=    4 NActive=    4 NUniq=    2 SFac= 4.00D+00 NAtFMM=   60 NAOKFM=F Big=F
 Integral buffers will be    131072 words long.
 Raffenetti 2 integral format.
 Two-electron integral symmetry is turned on.
 Leave Link  301 at Thu Feb  4 12:52:21 2016, MaxMem=    33554432 cpu:         0.1
 (Enter /usr/local/research/Gaussian09/g09-revD.01/g09/l302.exe)
 NPDir=0 NMtPBC=     1 NCelOv=     1 NCel=       1 NClECP=     1 NCelD=      1
         NCelK=      1 NCelE2=     1 NClLst=     1 CellRange=     0.0.
 One-electron integrals computed using PRISM.
 One-electron integral symmetry used in STVInt
   2 Symmetry operations used in ECPInt.
 ECPInt:  NShTT=     171 NPrTT=     627 LenC2=     172 LenP2D=     589.
 LDataN:  DoStor=T MaxTD1= 4 Len=   56
 NBasis=    38 RedAO= T EigKep=  1.46D-02  NBF=    19    19
 NBsUse=    38 1.00D-06 EigRej= -1.00D+00 NBFU=    19    19
 Precomputing XC quadrature grid using
 IXCGrd= 4 IRadAn=           0 IRanWt=          -1 IRanGd=           0 AccXCQ= 0.00D+00.
 Generated NRdTot=       0 NPtTot=           0 NUsed=           0 NTot=          32
 NSgBfM=    40    40    40    40    40 MxSgAt=     4 MxSgA2=     4.
 Leave Link  302 at Thu Feb  4 12:52:21 2016, MaxMem=    33554432 cpu:         0.3
 (Enter /usr/local/research/Gaussian09/g09-revD.01/g09/l303.exe)
 DipDrv:  MaxL=1.
 Leave Link  303 at Thu Feb  4 12:52:21 2016, MaxMem=    33554432 cpu:         0.0
 (Enter /usr/local/research/Gaussian09/g09-revD.01/g09/l401.exe)
 Initial guess from the checkpoint file:  "g09-h2o2.chk"
 B after Tr=     0.000000    0.000000    0.000000
         Rot=    0.999995    0.000000    0.000000   -0.003021 Ang=  -0.35 deg.
 Guess basis will be translated and rotated to current coordinates.
 JPrj=2 DoOrth=T DoCkMO=T.
 Initial guess orbital symmetries:
       Occupied  (B) (A) (A) (B) (A) (B) (A) (A) (B)
       Virtual   (A) (A) (A) (A) (A) (A) (A) (A) (A) (A) (A) (A)
                 (A) (A) (B) (B) (B) (B) (B) (B) (B) (B) (B) (B)
                 (B) (B) (B) (B) (B)
 The electronic state of the initial guess is 1-A.
 Generating alternative initial guess.
 ExpMin= 1.22D-01 ExpMax= 2.27D+03 ExpMxC= 3.41D+02 IAcc=1 IRadAn=         1 AccDes= 0.00D+00
 Harris functional with IExCor= 1009 and IRadAn=       1 diagonalized for initial guess.
 HarFok:  IExCor= 1009 AccDes= 0.00D+00 IRadAn=         1 IDoV= 1 UseB2=F ITyADJ=14
 ICtDFT=  3500011 ScaDFX=  1.000000  1.000000  1.000000  1.000000
 FoFCou: FMM=F IPFlag=           0 FMFlag=      100000 FMFlg1=           0
         NFxFlg=           0 DoJE=T BraDBF=F KetDBF=T FulRan=T
         wScrn=  0.000000 ICntrl=     500 IOpCl=  0 I1Cent=   200000004 NGrid=           0
         NMat0=    1 NMatS0=      1 NMatT0=    0 NMatD0=    1 NMtDS0=    0 NMtDT0=    0
 Petite list used in FoFCou.
 Harris En= -151.306370919739    
 Leave Link  401 at Thu Feb  4 12:52:22 2016, MaxMem=    33554432 cpu:         0.4
 (Enter /usr/local/research/Gaussian09/g09-revD.01/g09/l502.exe)
 Closed shell SCF:
 Using DIIS extrapolation, IDIIS=  1040.
 Integral symmetry usage will be decided dynamically.
 Keep R1 ints in memory in symmetry-blocked form, NReq=1161211.
 IVT=       23954 IEndB=       23954 NGot=    33554432 MDV=    33391000
 LenX=    33391000 LenY=    33388959
 Requested convergence on RMS density matrix=1.00D-08 within 128 cycles.
 Requested convergence on MAX density matrix=1.00D-06.
 Requested convergence on             energy=1.00D-06.
 No special actions if energy rises.
 FoFCou: FMM=F IPFlag=           0 FMFlag=           0 FMFlg1=           0
         NFxFlg=           0 DoJE=F BraDBF=F KetDBF=F FulRan=T
         wScrn=  0.000000 ICntrl=     600 IOpCl=  0 I1Cent=           0 NGrid=           0
         NMat0=    1 NMatS0=    741 NMatT0=    0 NMatD0=    1 NMtDS0=    0 NMtDT0=    0
 Petite list used in FoFCou.
 Integral accuracy reduced to 1.0D-05 until final iterations.

 Cycle   1  Pass 0  IDiag  1:
 E= -151.263112885333    
 DIIS: error= 3.80D-03 at cycle   1 NSaved=   1.
 NSaved= 1 IEnMin= 1 EnMin= -151.263112885333     IErMin= 1 ErrMin= 3.80D-03
 ErrMax= 3.80D-03  0.00D+00 EMaxC= 1.00D-01 BMatC= 5.94D-04 BMatP= 5.94D-04
 IDIUse=3 WtCom= 9.62D-01 WtEn= 3.80D-02
 Coeff-Com:  0.100D+01
 Coeff-En:   0.100D+01
 Coeff:      0.100D+01
 Gap=     0.834 Goal=   None    Shift=    0.000
 GapD=    0.834 DampG=2.000 DampE=1.000 DampFc=2.0000 IDamp=-1.
 RMSDP=7.08D-04 MaxDP=5.78D-03              OVMax= 6.57D-03

 Cycle   2  Pass 0  IDiag  1:
 E= -151.263746899619     Delta-E=       -0.000634014285 Rises=F Damp=F
 DIIS: error= 5.01D-04 at cycle   2 NSaved=   2.
 NSaved= 2 IEnMin= 2 EnMin= -151.263746899619     IErMin= 2 ErrMin= 5.01D-04
 ErrMax= 5.01D-04  0.00D+00 EMaxC= 1.00D-01 BMatC= 1.67D-05 BMatP= 5.94D-04
 IDIUse=3 WtCom= 9.95D-01 WtEn= 5.01D-03
 Coeff-Com:  0.111D-01 0.989D+00
 Coeff-En:   0.000D+00 0.100D+01
 Coeff:      0.111D-01 0.989D+00
 Gap=     0.338 Goal=   None    Shift=    0.000
 RMSDP=1.59D-04 MaxDP=1.75D-03 DE=-6.34D-04 OVMax= 1.99D-03

 Cycle   3  Pass 0  IDiag  1:
 E= -151.263753277760     Delta-E=       -0.000006378142 Rises=F Damp=F
 DIIS: error= 3.95D-04 at cycle   3 NSaved=   3.
 NSaved= 3 IEnMin= 3 EnMin= -151.263753277760     IErMin= 3 ErrMin= 3.95D-04
 ErrMax= 3.95D-04  0.00D+00 EMaxC= 1.00D-01 BMatC= 1.36D-05 BMatP= 1.67D-05
 IDIUse=3 WtCom= 9.96D-01 WtEn= 3.95D-03
 Coeff-Com: -0.291D-01 0.479D+00 0.550D+00
 Coeff-En:   0.000D+00 0.333D+00 0.667D+00
 Coeff:     -0.290D-01 0.478D+00 0.551D+00
 Gap=     0.337 Goal=   None    Shift=    0.000
 RMSDP=7.20D-05 MaxDP=7.18D-04 DE=-6.38D-06 OVMax= 7.48D-04

 Cycle   4  Pass 0  IDiag  1:
 E= -151.263763395663     Delta-E=       -0.000010117903 Rises=F Damp=F
 DIIS: error= 4.58D-05 at cycle   4 NSaved=   4.
 NSaved= 4 IEnMin= 4 EnMin= -151.263763395663     IErMin= 4 ErrMin= 4.58D-05
 ErrMax= 4.58D-05  0.00D+00 EMaxC= 1.00D-01 BMatC= 1.20D-07 BMatP= 1.36D-05
 IDIUse=1 WtCom= 1.00D+00 WtEn= 0.00D+00
 Coeff-Com: -0.413D-02 0.383D-01 0.108D+00 0.858D+00
 Coeff:     -0.413D-02 0.383D-01 0.108D+00 0.858D+00
 Gap=     0.338 Goal=   None    Shift=    0.000
 RMSDP=1.18D-05 MaxDP=7.40D-05 DE=-1.01D-05 OVMax= 2.27D-04

 Cycle   5  Pass 0  IDiag  1:
 E= -151.263763529735     Delta-E=       -0.000000134072 Rises=F Damp=F
 DIIS: error= 1.04D-05 at cycle   5 NSaved=   5.
 NSaved= 5 IEnMin= 5 EnMin= -151.263763529735     IErMin= 5 ErrMin= 1.04D-05
 ErrMax= 1.04D-05  0.00D+00 EMaxC= 1.00D-01 BMatC= 6.12D-09 BMatP= 1.20D-07
 IDIUse=1 WtCom= 1.00D+00 WtEn= 0.00D+00
 Coeff-Com:  0.925D-03-0.256D-01-0.177D-01 0.131D+00 0.911D+00
 Coeff:      0.925D-03-0.256D-01-0.177D-01 0.131D+00 0.911D+00
 Gap=     0.338 Goal=   None    Shift=    0.000
 RMSDP=2.68D-06 MaxDP=2.15D-05 DE=-1.34D-07 OVMax= 5.98D-05

 Initial convergence to 1.0D-05 achieved.  Increase integral accuracy.
 Cycle   6  Pass 1  IDiag  1:
 E= -151.263753793436     Delta-E=        0.000009736299 Rises=F Damp=F
 DIIS: error= 2.57D-06 at cycle   1 NSaved=   1.
 NSaved= 1 IEnMin= 1 EnMin= -151.263753793436     IErMin= 1 ErrMin= 2.57D-06
 ErrMax= 2.57D-06  0.00D+00 EMaxC= 1.00D-01 BMatC= 5.38D-10 BMatP= 5.38D-10
 IDIUse=1 WtCom= 1.00D+00 WtEn= 0.00D+00
 Coeff-Com:  0.100D+01
 Coeff:      0.100D+01
 Gap=     0.337 Goal=   None    Shift=    0.000
 RMSDP=2.68D-06 MaxDP=2.15D-05 DE= 9.74D-06 OVMax= 1.17D-05

 Cycle   7  Pass 1  IDiag  1:
 E= -151.263753794129     Delta-E=       -0.000000000693 Rises=F Damp=F
 DIIS: error= 7.20D-07 at cycle   2 NSaved=   2.
 NSaved= 2 IEnMin= 2 EnMin= -151.263753794129     IErMin= 2 ErrMin= 7.20D-07
 ErrMax= 7.20D-07  0.00D+00 EMaxC= 1.00D-01 BMatC= 3.50D-11 BMatP= 5.38D-10
 IDIUse=1 WtCom= 1.00D+00 WtEn= 0.00D+00
 Coeff-Com:  0.965D-01 0.904D+00
 Coeff:      0.965D-01 0.904D+00
 Gap=     0.337 Goal=   None    Shift=    0.000
 RMSDP=2.24D-07 MaxDP=1.89D-06 DE=-6.93D-10 OVMax= 2.78D-06

 Cycle   8  Pass 1  IDiag  1:
 E= -151.263753794149     Delta-E=       -0.000000000019 Rises=F Damp=F
 DIIS: error= 4.80D-07 at cycle   3 NSaved=   3.
 NSaved= 3 IEnMin= 3 EnMin= -151.263753794149     IErMin= 3 ErrMin= 4.80D-07
 ErrMax= 4.80D-07  0.00D+00 EMaxC= 1.00D-01 BMatC= 1.87D-11 BMatP= 3.50D-11
 IDIUse=1 WtCom= 1.00D+00 WtEn= 0.00D+00
 Coeff-Com: -0.180D-01 0.412D+00 0.606D+00
 Coeff:     -0.180D-01 0.412D+00 0.606D+00
 Gap=     0.337 Goal=   None    Shift=    0.000
 RMSDP=8.72D-08 MaxDP=8.47D-07 DE=-1.93D-11 OVMax= 9.38D-07

 Cycle   9  Pass 1  IDiag  1:
 E= -151.263753794163     Delta-E=       -0.000000000014 Rises=F Damp=F
 DIIS: error= 8.11D-08 at cycle   4 NSaved=   4.
 NSaved= 4 IEnMin= 4 EnMin= -151.263753794163     IErMin= 4 ErrMin= 8.11D-08
 ErrMax= 8.11D-08  0.00D+00 EMaxC= 1.00D-01 BMatC= 4.93D-13 BMatP= 1.87D-11
 IDIUse=1 WtCom= 1.00D+00 WtEn= 0.00D+00
 Coeff-Com: -0.102D-01 0.899D-01 0.200D+00 0.720D+00
 Coeff:     -0.102D-01 0.899D-01 0.200D+00 0.720D+00
 Gap=     0.337 Goal=   None    Shift=    0.000
 RMSDP=1.68D-08 MaxDP=1.29D-07 DE=-1.40D-11 OVMax= 2.15D-07

 Cycle  10  Pass 1  IDiag  1:
 E= -151.263753794163     Delta-E=        0.000000000000 Rises=F Damp=F
 DIIS: error= 1.09D-08 at cycle   5 NSaved=   5.
 NSaved= 5 IEnMin= 5 EnMin= -151.263753794163     IErMin= 5 ErrMin= 1.09D-08
 ErrMax= 1.09D-08  0.00D+00 EMaxC= 1.00D-01 BMatC= 5.53D-15 BMatP= 4.93D-13
 IDIUse=1 WtCom= 1.00D+00 WtEn= 0.00D+00
 Coeff-Com:  0.443D-03-0.146D-01-0.298D-01-0.288D-01 0.107D+01
 Coeff:      0.443D-03-0.146D-01-0.298D-01-0.288D-01 0.107D+01
 Gap=     0.337 Goal=   None    Shift=    0.000
 RMSDP=6.21D-09 MaxDP=4.03D-08 DE=-2.27D-13 OVMax= 1.37D-07

 SCF Done:  E(RPBE1PBE) =  -151.263753794     A.U. after   10 cycles
            NFock= 10  Conv=0.62D-08     -V/T= 2.0051
 KE= 1.504916461037D+02 PE=-4.329997168911D+02 EE= 9.382046077924D+01
 Leave Link  502 at Thu Feb  4 12:52:23 2016, MaxMem=    33554432 cpu:         1.3
 (Enter /usr/local/research/Gaussian09/g09-revD.01/g09/l701.exe)
 Compute integral first derivatives.
 ... and contract with generalized density number  0.
 DipInt: DoE/N= T T RetVal/Mat= T F Init=T NMatP=  1 IDeriv=0 Min/MaxMlt=  1  1
 Entering OneElI...
 Multipole integrals L=1 to 1 MinM= 0 MaxM= 0.
 Requested accuracy = 0.1000D-12
 PrsmSu:  NPrtUS=   1 ThrOK=F IAlg=1 NPAlg=1 LenDen=           0.
 Prism:   IPart=     0 DynPar=F LinDyn=F Incr=           1.
 PRISM was handed    33538411 working-precision words and   171 shell-pairs
 IPart=  0 NShTot=         171 NBatch=          25 AvBLen=         6.8
 PrSmSu:  NxtVal=              2.
 Entering OneElI...
 Calculate overlap and kinetic energy integrals
    NBasis =  40  MinDer = 1  MaxDer = 1
 Requested accuracy = 0.1000D-12
 PrsmSu:  NPrtUS=   1 ThrOK=F IAlg=1 NPAlg=1 LenDen=           0.
 Prism:   IPart=     0 DynPar=F LinDyn=F Incr=           1.
 PRISM was handed    33536464 working-precision words and   171 shell-pairs
 IPart=  0 NShTot=         171 NBatch=          24 AvBLen=         7.1
 PrSmSu:  NxtVal=              2.
 Entering OneElI...
 Calculate potential energy integrals
    NBasis =  40  MinDer = 1  MaxDer = 1
 Requested accuracy = 0.1000D-12
 PrsmSu:  NPrtUS=   1 ThrOK=F IAlg=1 NPAlg=1 LenDen=           0.
 Prism:   IPart=     0 DynPar=F LinDyn=F Incr=           6.
 PRISM was handed    33538251 working-precision words and   171 shell-pairs
 IPart=  0 NShTot=         684 NBatch=         171 AvBLen=         4.0
 PrSmSu:  NxtVal=              7.
   2 Symmetry operations used in ECPInt.
 ECPInt:  NShTT=     171 NPrTT=     627 LenC2=     172 LenP2D=     589.
 LDataN:  DoStor=F MaxTD1= 5 Len=  102
 LDataN:  DoStor=T MaxTD1= 5 Len=  102
 ECPSu:  NPrtUS=   1 ThrOK=F
 FXYZ after ECPSu
 I=    0 X=   0.000000000000D+00 Y=   0.000000000000D+00 Z=   0.000000000000D+00
 I=    1 X=   0.000000000000D+00 Y=   0.000000000000D+00 Z=   0.000000000000D+00
 I=    2 X=   0.000000000000D+00 Y=   0.000000000000D+00 Z=   0.000000000000D+00
 I=    3 X=   0.000000000000D+00 Y=   0.000000000000D+00 Z=   0.000000000000D+00
 I=    4 X=   0.000000000000D+00 Y=   0.000000000000D+00 Z=   0.000000000000D+00
 l701 out
 I=    0 X=   0.000000000000D+00 Y=   0.000000000000D+00 Z=   7.479854140040D-01
 I=    1 X=   3.427867295074D+00 Y=   1.192082186238D+00 Z=   2.262519077476D+00
 I=    2 X=  -2.889924484268D+00 Y=   8.025584083084D+00 Z=  -2.262519077476D+00
 I=    3 X=   2.889924484268D+00 Y=  -8.025584083084D+00 Z=  -2.262519077476D+00
 I=    4 X=  -3.427867295074D+00 Y=  -1.192082186238D+00 Z=   2.262519077476D+00
 Leave Link  701 at Thu Feb  4 12:52:23 2016, MaxMem=    33554432 cpu:         0.2
 (Enter /usr/local/research/Gaussian09/g09-revD.01/g09/l702.exe)
 L702 exits ... SP integral derivatives will be done elsewhere.
 Leave Link  702 at Thu Feb  4 12:52:23 2016, MaxMem=    33554432 cpu:         0.1
 (Enter /usr/local/research/Gaussian09/g09-revD.01/g09/l703.exe)
 Compute integral first derivatives, UseDBF=F ICtDFT=           0.
 Integral derivatives from FoFJK, PRISM(SPDF).
 ICntrl=      2127.
 Calling FoFJK, ICntrl=      2127 FMM=F ISym2X=1 I1Cent= 0 IOpClX= 0 NMat=1 NMatS=1 NMatT=0.
 FoFJK:  IHMeth= 1 ICntrl=    2127 DoSepK=F KAlg= 0 I1Cent=   0 FoldK=F
 IRaf=         0 NMat=   1 IRICut=       1 DoRegI=T DoRafI=F ISym2E= 1.
 FoFCou: FMM=F IPFlag=           0 FMFlag=      100000 FMFlg1=         800
         NFxFlg=           0 DoJE=F BraDBF=F KetDBF=F FulRan=T
         wScrn=  0.000000 ICntrl=    2127 IOpCl=  0 I1Cent=           0 NGrid=           0
         NMat0=    1 NMatS0=      1 NMatT0=    0 NMatD0=    1 NMtDS0=    0 NMtDT0=    0
 Petite list used in FoFCou.
 FoFCou:  KetSym=F NOpSet=  2 NOpAb=2 NOp=  2.
 FoFCou:  CnvScl= 1.00D+00 Thresh= 1.00D-10 IAcrcy=      10.
 PrismS was handed    33538048 working-precision words and   171 shell-pairs
 FoFCou: LinMIO=F DoNuc=F BraDBF=F KetDBF=F HaveP=T PDBF=F HaveZ=T HaveW=F
         NIJTC =       6 NIJTAt=       0 NIJTCD=       0 NIJTT =       6
         IJTBeg=       1 IJTEnd=       6 KLTBeg=       1 KLTEnd=       6
         IPTBeg=       1 IPTEnd=       6 IPTBCv=       1 IPTECv=       6
         IZTBeg=       1 IZTEnd=       6 IZTBCv=       1 IZTECv=       6
         IWTBeg=       7 IWTEnd=       6 IWTBCv=       7 IWTECv=       6
         INTBeg=       1 INTEnd=       0 IFTBCv=       1 IFTECv=       6
 NCel replicated for PrismC:     1
 CoulSu:  IncDef=  1024 NBBP=          14706 NTPThr=   100 NPartT=    1 Incr=         147 LDynOK=F.
 CoulSu:  NPrtUS=   1 ThrOK=F IAlg=1 NPAlg=1 LenDen=           0 LWGrdD=           0 DoCopy=F.
 Enter PrismC: JobTyp=21 DoJE=F Cont=F.
 PrismC:  IPart=     0 DynPar=F LinDyn=F Incr=         147 UseFst=F UseS4=T IGathr=2.
 PrismC was handed    33537846 working-precision words and   171 shell-pairs
 IPart=  0 NShTot=        7326 NShNF=        7326 NShFF=           0 NBatch=         408 AvBLen=        18.0
 CoulSu:  NxtVal=            148.
 ReadGW:  IGet=0 IStart=           1 Next=           1 LGW=           0.
 Remaining memory in FofDFT       32.00 Mw
 CkSvGd:  ISavGI=        -1 IRadAn=       4 IRASav=       0 ISavGd=        -1.
 CalDSu:  NPrtUS=   1 ThrOK=F IAlg=1 NPAlg=1 DoDPD=F LenP=         820 LenD1P=             0.
 IPart=  0 IRanGd=          0 ScrnBf=T ScrnGd=T RCrit=4.00D+00 DoMicB=T.
 IPart=  0        15130 of        15922 points in      33 batches and      120 microbatches, Max-NSigAt=       4 Max-NSgAt2=       4
 Forces at end of L703
 I=    0 X=   0.000000000000D+00 Y=   0.000000000000D+00 Z=   7.479854140040D-01
 I=    1 X=   2.061160125704D-03 Y=   1.620727189948D-03 Z=   1.572921000283D-03
 I=    2 X=  -8.095086470621D-04 Y=  -2.500911469280D-03 Z=  -1.572921000272D-03
 I=    3 X=   8.095086470501D-04 Y=   2.500911469275D-03 Z=  -1.572921000268D-03
 I=    4 X=  -2.061160125695D-03 Y=  -1.620727189944D-03 Z=   1.572921000276D-03
 Leave Link  703 at Thu Feb  4 12:52:24 2016, MaxMem=    33554432 cpu:         0.5
 (Enter /usr/local/research/Gaussian09/g09-revD.01/g09/l716.exe)
 FrcOut:
 IF    =    87 IFX   =    99 IFXYZ =   111
 IFFX  =   123 IFFFX =   123 IFLen =    12
 IFFLen=     0 IFFFLn=     0 IEDerv=   123
 LEDerv=   629 IFroze=   910 ICStrt=  3927
 Dipole        = 2.22044605D-16-4.44089210D-16 7.47985414D-01
 Forces in standard orientation:
 -------------------------------------------------------------------
 Center     Atomic                   Forces (Hartrees/Bohr)
 Number     Number              X              Y              Z
 -------------------------------------------------------------------
      1        1           0.002061160    0.001620727    0.001572921
[...]
     1  H    0.180528   0.000000   0.180377   0.065417   0.106848   0.362659
     2  O   -0.180525   0.000000   0.097467  -0.127752   0.078625  -0.362656
     3  O   -0.180525   0.000000  -0.097467   0.127752   0.078625  -0.362656
     4  H    0.180528   0.000000  -0.180377  -0.065417   0.106848   0.362659
       Tot   0.000007   0.000000   0.000000   0.000000   0.370946   0.000007
 Hirshfeld charges with hydrogens summed into heavy atoms:
              Q-H       Q-CM5   
     2  O    0.000004   0.000004
     3  O    0.000004   0.000004
 
 EQQ= 0.000000000000E+00 EQD= 0.000000000000E+00 EDD= 0.445311337820E-02
 EQQ+QD+DD= 0.445311337820E-02
 
  Exact polarizability:   8.788   2.216  12.873   0.000   0.000   6.073
 Approx polarizability:  10.611   2.110  17.397   0.000   0.000   7.133
 No NMR shielding tensors so no spin-rotation constants.
 Leave Link  601 at Thu Feb  4 12:52:45 2016, MaxMem=    33554432 cpu:         0.4
 (Enter /usr/local/research/Gaussian09/g09-revD.01/g09/l701.exe)
 Compute integral second derivatives.
 ... and contract with generalized density number  0.
   2 Symmetry operations used in ECPInt.
 ECPInt:  NShTT=     171 NPrTT=     627 LenC2=     172 LenP2D=     589.
 LDataN:  DoStor=T MaxTD1= 6 Len=  172
 Leave Link  701 at Thu Feb  4 12:52:45 2016, MaxMem=    33554432 cpu:         0.3
 (Enter /usr/local/research/Gaussian09/g09-revD.01/g09/l702.exe)
 L702 exits ... SP integral derivatives will be done elsewhere.
 Leave Link  702 at Thu Feb  4 12:52:45 2016, MaxMem=    33554432 cpu:         0.1
 (Enter /usr/local/research/Gaussian09/g09-revD.01/g09/l703.exe)
 Compute integral second derivatives, UseDBF=F ICtDFT=           0.
 Integral derivatives from FoFJK, PRISM(SPDF).
 Calling FoFJK, ICntrl=    100127 FMM=F ISym2X=1 I1Cent= 0 IOpClX= 0 NMat=1 NMatS=1 NMatT=0.
 FoFJK:  IHMeth= 1 ICntrl=  100127 DoSepK=F KAlg= 0 I1Cent=   0 FoldK=F
 IRaf=         0 NMat=   1 IRICut=       1 DoRegI=T DoRafI=F ISym2E= 1.
 FoFCou: FMM=F IPFlag=           0 FMFlag=      100000 FMFlg1=         800
         NFxFlg=           0 DoJE=F BraDBF=F KetDBF=F FulRan=T
         wScrn=  0.000000 ICntrl=  100127 IOpCl=  0 I1Cent=           0 NGrid=           0
         NMat0=    1 NMatS0=      1 NMatT0=    0 NMatD0=    1 NMtDS0=    0 NMtDT0=    0
 Petite list used in FoFCou.
 Leave Link  703 at Thu Feb  4 12:52:49 2016, MaxMem=    33554432 cpu:         3.3
 (Enter /usr/local/research/Gaussian09/g09-revD.01/g09/l716.exe)
 Dipole        = 2.44596010D-16 1.15827486D-14 7.06295254D-01
 Polarizability= 8.78823146D+00 2.21564858D+00 1.28729017D+01
                -4.33864423D-09 4.73988341D-09 6.07341628D+00
 Full mass-weighted force constant matrix:
 Low frequencies ---  -16.9060  -10.5567   -0.0019   -0.0017   -0.0016   36.5174
 Low frequencies ---  355.8410 1012.1111 1341.7255
 Diagonal vibrational polarizability:
        0.1002005       1.5009926      42.9331876
 Harmonic frequencies (cm**-1), IR intensities (KM/Mole), Raman scattering
 activities (A**4/AMU), depolarization ratios for plane and unpolarized
 incident light, reduced masses (AMU), force constants (mDyne/A),
 and normal coordinates:
                      1                      2                      3
                      A                      A                      B
 Frequencies --    355.8409              1012.1111              1341.7255
 Red. masses --      1.0848                14.0382                 1.1032
 Frc consts  --      0.0809                 8.4726                 1.1701
 IR Inten    --    201.6787                 1.5566                98.9816
  Atom  AN      X      Y      Z        X      Y      Z        X      Y      Z
     1   1    -0.36   0.03   0.60     0.03  -0.08   0.24     0.10  -0.70   0.06
     2   8     0.03  -0.01  -0.04    -0.01   0.66  -0.02    -0.01   0.04  -0.03
     3   8    -0.03   0.01  -0.04     0.01  -0.66  -0.02    -0.01   0.04   0.03
     4   1     0.36  -0.03   0.60    -0.03   0.08   0.24     0.10  -0.70  -0.06
                      4                      5                      6
                      A                      B                      A
 Frequencies --   1481.1907              3826.5720              3827.6478
 Red. masses --      1.0951                 1.0676                 1.0704
 Frc consts  --      1.4155                 9.2106                 9.2394
 IR Inten    --      0.0647                66.1307                15.5876
  Atom  AN      X      Y      Z        X      Y      Z        X      Y      Z
     1   1    -0.03   0.70  -0.08    -0.59  -0.13  -0.36     0.60   0.12   0.36
     2   8     0.05   0.01   0.01     0.04   0.01   0.02    -0.04  -0.01  -0.02
     3   8    -0.05  -0.01   0.01     0.04   0.01  -0.02     0.04   0.01  -0.02
     4   1     0.03  -0.70  -0.08    -0.59  -0.13   0.36    -0.60  -0.12   0.36

 -------------------
 - Thermochemistry -
 -------------------
 Temperature   298.150 Kelvin.  Pressure   1.00000 Atm.
 Atom     1 has atomic number  1 and mass   1.00783
 Atom     2 has atomic number  8 and mass  15.99491
 Atom     3 has atomic number  8 and mass  15.99491
 Atom     4 has atomic number  1 and mass   1.00783
 Molecular mass:    34.00548 amu.
 Principal axes and moments of inertia in atomic units:
                           1         2         3
     Eigenvalues --     5.91765  65.32094  67.96769
           X            0.08832   0.99609   0.00000
           Y            0.99609  -0.08832   0.00000
           Z            0.00000   0.00000   1.00000
 This molecule is an asymmetric top.
 Rotational symmetry number  2.
 Rotational temperatures (Kelvin)     14.63652     1.32597     1.27434
 Rotational constants (GHZ):         304.97594    27.62883    26.55293
 Zero-point vibrational energy      70849.4 (Joules/Mol)
                                   16.93340 (Kcal/Mol)
 Warning -- explicit consideration of   1 degrees of freedom as
           vibrations may cause significant error
 Vibrational temperatures:    511.98  1456.20  1930.44  2131.10  5505.58
          (Kelvin)           5507.12
 
 Zero-point correction=                           0.026985 (Hartree/Particle)
 Thermal correction to Energy=                    0.030222
 Thermal correction to Enthalpy=                  0.031167
 Thermal correction to Gibbs Free Energy=         0.005365
 Sum of electronic and zero-point Energies=           -151.236827
 Sum of electronic and thermal Energies=              -151.233590
 Sum of electronic and thermal Enthalpies=            -151.232646
 Sum of electronic and thermal Free Energies=         -151.258448
 
                     E (Thermal)             CV                S
                      KCal/Mol        Cal/Mol-Kelvin    Cal/Mol-Kelvin
 Total                   18.965              8.098             54.304
 Electronic               0.000              0.000              0.000
 Translational            0.889              2.981             36.503
 Rotational               0.889              2.981             16.537
 Vibrational             17.187              2.136              1.265
 Vibration     1          0.731              1.563              1.140
                       Q            Log10(Q)             Ln(Q)
 Total Bot       0.340692D-02         -2.467639         -5.681948
 Total V=0       0.880273D+10          9.944617         22.898328
 Vib (Bot)       0.476447D-12        -12.321986        -28.372421
 Vib (Bot)    1  0.516512D+00         -0.286919         -0.660656
 Vib (V=0)       0.123103D+01          0.090270          0.207855
 Vib (V=0)    1  0.121888D+01          0.085960          0.197930
 Electronic      0.100000D+01          0.000000          0.000000
 Translational   0.779433D+07          6.891779         15.868907
 Rotational      0.917421D+03          2.962569          6.821566
 
                                                        -- Hydrogenperoxide --
                                                             IR Spectrum
 
     33                                                                            1    1          1                                 
     88                                                                            4    3          0                     3           
     22                                                                            8    4          1                     5           
     87                                                                            1    2          2                     6           
 
     XX                                                                            X    X          X                     X           
     XX                                                                                 X                                X           
      X                                                                                 X                                X           
      X                                                                                 X                                X           
      X                                                                                 X                                X           
      X                                                                                 X                                X           
      X                                                                                 X                                X           
                                                                                        X                                X           
                                                                                        X                                X           
                                                                                        X                                X           
                                                                                                                         X           
                                                                                                                         X           
                                                                                                                         X           
                                                                                                                         X           
                                                                                                                         X           
                                                                                                                         X           
                                                                                                                         X           
                                                                                                                         X           
                                                                                                                         X           
                                                                                                                         X           
 
 ***** Axes restored to original set *****
 -------------------------------------------------------------------
 Center     Atomic                   Forces (Hartrees/Bohr)
 Number     Number              X              Y              Z
 -------------------------------------------------------------------
      1        1           0.000011172    0.000004976    0.000008612
      2        8          -0.000014462   -0.000018326   -0.000008612
      3        8           0.000014462    0.000018326   -0.000008612
      4        1          -0.000011172   -0.000004976    0.000008612
 -------------------------------------------------------------------
 Cartesian Forces:  Max     0.000018326 RMS     0.000011852
 Force constants in Cartesian coordinates: 
                1             2             3             4             5 
      1  0.330954D+00
      2  0.126000D+00  0.127727D+00
      3  0.210387D+00  0.869369D-01  0.137713D+00
      4 -0.342420D+00 -0.946693D-01 -0.216984D+00  0.398081D+00
      5 -0.148615D+00 -0.832486D-01 -0.934518D-01  0.978133D-01  0.400838D+00
      6 -0.219717D+00 -0.671588D-01 -0.140675D+00  0.226314D+00  0.736737D-01
      7  0.124470D-01 -0.314481D-01  0.557273D-02 -0.681079D-01  0.283041D-01
      8  0.224977D-01 -0.375038D-01  0.325578D-02  0.283041D-01 -0.280086D+00
      9  0.103549D-01 -0.165190D-01  0.198037D-02 -0.375762D-02  0.230339D-01
     10 -0.980743D-03  0.117931D-03  0.102452D-02  0.124470D-01  0.224977D-01
     11  0.117931D-03 -0.697499D-02  0.325909D-02 -0.314481D-01 -0.375038D-01
     12 -0.102452D-02 -0.325909D-02  0.982087D-03 -0.557273D-02 -0.325578D-02
                6             7             8             9            10 
      6  0.159094D+00
      7  0.375762D-02  0.398081D+00
      8 -0.230339D-01  0.978133D-01  0.400838D+00
      9 -0.203989D-01 -0.226314D+00 -0.736737D-01  0.159094D+00
     10 -0.103549D-01 -0.342420D+00 -0.148615D+00  0.219717D+00  0.330954D+00
     11  0.165190D-01 -0.946693D-01 -0.832486D-01  0.671588D-01  0.126000D+00
     12  0.198037D-02  0.216984D+00  0.934518D-01 -0.140675D+00 -0.210387D+00
               11            12 
     11  0.127727D+00
     12 -0.869369D-01  0.137713D+00
 FormGI is forming the generalized inverse of G from B-inverse, IUseBI=4.
 Force constants in internal coordinates: 
                1             2             3             4             5 
      1  0.524730D+00
      2 -0.432287D-02  0.355605D+00
      3 -0.309212D-03 -0.432287D-02  0.524730D+00
      4 -0.653132D-02  0.761446D-01  0.150791D-02  0.230521D+00
      5  0.150791D-02  0.761446D-01 -0.653132D-02  0.223460D-01  0.230521D+00
      6  0.261627D-02 -0.289184D-02  0.261627D-02  0.952948D-02  0.952948D-02
                6 
      6  0.828400D-02
 Leave Link  716 at Thu Feb  4 12:52:49 2016, MaxMem=    33554432 cpu:         0.1
 (Enter /usr/local/research/Gaussian09/g09-revD.01/g09/l103.exe)

 GradGradGradGradGradGradGradGradGradGradGradGradGradGradGradGradGradGrad
 Berny optimization.
 Red2BG is reusing G-inverse.
 Internal  Forces:  Max     0.000016151 RMS     0.000011224
 Search for a local minimum.
 Step number   1 out of a maximum of    2
 All quantities printed in internal units (Hartrees-Bohrs-Radians)
 Second derivative matrix not updated -- analytic derivatives used.
 The second derivative matrix:
                          R1        R2        R3        A1        A2
           R1           0.52473
           R2          -0.00432   0.35561
           R3          -0.00031  -0.00432   0.52473
           A1          -0.00653   0.07614   0.00151   0.23052
           A2           0.00151   0.07614  -0.00653   0.02235   0.23052
           D1           0.00262  -0.00289   0.00262   0.00953   0.00953
                          D1
           D1           0.00828
 ITU=  0
     Eigenvalues ---    0.00726   0.18587   0.20797   0.42300   0.52505
     Eigenvalues ---    0.52524
 Angle between quadratic step and forces=  51.24 degrees.
 Linear search not attempted -- first point.
 Iteration  1 RMS(Cart)=  0.00003241 RMS(Int)=  0.00000000
 Iteration  2 RMS(Cart)=  0.00000000 RMS(Int)=  0.00000000
 ITry= 1 IFail=0 DXMaxC= 3.52D-05 DCOld= 1.00D+10 DXMaxT= 3.00D-01 DXLimC= 3.00D+00 Rises=F
 ClnCor:  largest displacement from symmetrization is 2.16D-14 for atom     3.
 Variable       Old X    -DE/DX   Delta X   Delta X   Delta X     New X
                                 (Linear)    (Quad)   (Total)
    R1        1.82729   0.00002   0.00000   0.00003   0.00003   1.82732
    R2        2.68061  -0.00001   0.00000  -0.00004  -0.00004   2.68057
    R3        1.82729   0.00002   0.00000   0.00003   0.00003   1.82732
    A1        1.76322   0.00000   0.00000   0.00000   0.00000   1.76322
    A2        1.76322   0.00000   0.00000   0.00000   0.00000   1.76322
    D1        2.05304   0.00000   0.00000  -0.00007  -0.00007   2.05296
         Item               Value     Threshold  Converged?
 Maximum Force            0.000016     0.000450     YES
 RMS     Force            0.000011     0.000300     YES
 Maximum Displacement     0.000035     0.001800     YES
 RMS     Displacement     0.000032     0.001200     YES
 Predicted change in Energy=-7.888243D-10
 Optimization completed.
    -- Stationary point found.
                           ----------------------------
                           !   Optimized Parameters   !
                           ! (Angstroms and Degrees)  !
 --------------------------                            --------------------------
 ! Name  Definition              Value          Derivative Info.                !
 --------------------------------------------------------------------------------
 ! R1    R(1,2)                  0.967          -DE/DX =    0.0                 !
 ! R2    R(2,3)                  1.4185         -DE/DX =    0.0                 !
 ! R3    R(3,4)                  0.967          -DE/DX =    0.0                 !
 ! A1    A(1,2,3)              101.025          -DE/DX =    0.0                 !
 ! A2    A(2,3,4)              101.025          -DE/DX =    0.0                 !
 ! D1    D(1,2,3,4)            117.6303         -DE/DX =    0.0                 !
 --------------------------------------------------------------------------------
 GradGradGradGradGradGradGradGradGradGradGradGradGradGradGradGradGradGrad

 Leave Link  103 at Thu Feb  4 12:52:49 2016, MaxMem=    33554432 cpu:         0.0
 (Enter /usr/local/research/Gaussian09/g09-revD.01/g09/l9999.exe)

 Test job not archived.
 1\1\GINC-HEISENBERG\Freq\RPBE1PBE\def2SVP\H2O2\LEIN\04-Feb-2016\0\\#P 
 Geom=AllCheck Guess=TCheck SCRF=Check Test GenChk RPBE1PBE/def2SVP Fre
 q\\-- Hydrogenperoxide --\\0,1\H,0.6017093881,1.0472760261,0.419883546
 5\O,-0.1518430695,0.6928133963,-0.0715679965\O,0.1518430695,-0.6928133
 963,-0.0715679965\H,-0.6017093881,-1.0472760261,0.4198835465\\Version=
 EM64L-G09RevD.01\State=1-A\HF=-151.2638123\RMSD=6.491e-10\RMSF=1.185e-
 05\ZeroPoint=0.0269851\Thermal=0.0302224\Dipole=0.,0.,0.7062953\Dipole
 Deriv=0.229444,0.0250454,-0.087655,0.0232863,0.2476073,0.0013026,-0.08
 61682,-0.0023728,0.313363,-0.229444,-0.0250454,0.1277974,-0.0232863,-0
 .2476073,0.0265794,0.1467527,-0.0905353,-0.313363,-0.229444,-0.0250454
 ,-0.1277974,-0.0232863,-0.2476073,-0.0265794,-0.1467527,0.0905353,-0.3
 13363,0.229444,0.0250454,0.087655,0.0232863,0.2476073,-0.0013026,0.086
 1682,0.0023728,0.313363\Polar=8.048757,1.1583467,13.6123761,0.,0.,6.07
 34163\PG=C02 [X(H2O2)]\NImag=0\\0.33095368,0.12599951,0.12772743,0.210
 38658,0.08693692,0.13771275,-0.34241996,-0.09466932,-0.21698382,0.3980
 8085,-0.14861513,-0.08324864,-0.09345179,0.09781335,0.40083844,-0.2197
 1692,-0.06715882,-0.14067520,0.22631417,0.07367370,0.15909374,0.012447
 02,-0.03144812,0.00557273,-0.06810791,0.02830410,0.00375762,0.39808085
 ,0.02249769,-0.03750379,0.00325578,0.02830410,-0.28008601,-0.02303387,
 0.09781335,0.40083844,0.01035487,-0.01651900,0.00198037,-0.00375762,0.
 02303387,-0.02039890,-0.22631417,-0.07367370,0.15909374,-0.00098074,0.
 00011793,0.00102452,0.01244702,0.02249769,-0.01035487,-0.34241996,-0.1
 4861513,0.21971692,0.33095368,0.00011793,-0.00697499,0.00325909,-0.031
 44812,-0.03750379,0.01651900,-0.09466932,-0.08324864,0.06715882,0.1259
 9951,0.12772743,-0.00102452,-0.00325909,0.00098209,-0.00557273,-0.0032
 5578,0.00198037,0.21698382,0.09345179,-0.14067520,-0.21038658,-0.08693
 692,0.13771275\\-0.00001117,-0.00000498,-0.00000861,0.00001446,0.00001
 833,0.00000861,-0.00001446,-0.00001833,0.00000861,0.00001117,0.0000049
 8,-0.00000861\\\@


 LIVE PURE, SPEAK TRUE, RIGHT WRONG, FOLLOW THE KING...
 ELSE, WHEREFORE BORN......
           IDYLLS OF THE KING, TENNYSON
 Job cpu time:       0 days  0 hours  0 minutes 11.1 seconds.
 File lengths (MBytes):  RWF=      5 Int=      0 D2E=      0 Chk=      1 Scr=      1
 Normal termination of Gaussian 09 at Thu Feb  4 12:52:49 2016.
