 Entering Gaussian System, Link 0=g09
 Initial command:
 /usr/local/research/Gaussian09/g09-revD.01/g09/l1.exe "/scratch/38173.heisenberg.scps.vuw.ac.nz/Gau-15449.inp" -scrdir="/scratch/38173.heisenberg.scps.vuw.ac.nz/"
 Entering Link 1 = /usr/local/research/Gaussian09/g09-revD.01/g09/l1.exe PID=     15451.
  
 Copyright (c) 1988,1990,1992,1993,1995,1998,2003,2009,2013,
            Gaussian, Inc.  All Rights Reserved.
  
 This is part of the Gaussian(R) 09 program.  It is based on
 the Gaussian(R) 03 system (copyright 2003, Gaussian, Inc.),
 the Gaussian(R) 98 system (copyright 1998, Gaussian, Inc.),
 the Gaussian(R) 94 system (copyright 1995, Gaussian, Inc.),
 the Gaussian 92(TM) system (copyright 1992, Gaussian, Inc.),
 the Gaussian 90(TM) system (copyright 1990, Gaussian, Inc.),
 the Gaussian 88(TM) system (copyright 1988, Gaussian, Inc.),
 the Gaussian 86(TM) system (copyright 1986, Carnegie Mellon
 University), and the Gaussian 82(TM) system (copyright 1983,
 Carnegie Mellon University). Gaussian is a federally registered
 trademark of Gaussian, Inc.
  
 This software contains proprietary and confidential information,
 including trade secrets, belonging to Gaussian, Inc.
  
 This software is provided under written license and may be
 used, copied, transmitted, or stored only in accord with that
 written license.
  
 The following legend is applicable only to US Government
 contracts under FAR:
  
                    RESTRICTED RIGHTS LEGEND
  
 Use, reproduction and disclosure by the US Government is
 subject to restrictions as set forth in subparagraphs (a)
 and (c) of the Commercial Computer Software - Restricted
 Rights clause in FAR 52.227-19.
  
 Gaussian, Inc.
 340 Quinnipiac St., Bldg. 40, Wallingford CT 06492
  
  
 ---------------------------------------------------------------
 Warning -- This program may not be used in any manner that
 competes with the business of Gaussian, Inc. or will provide
 assistance to any competitor of Gaussian, Inc.  The licensee
 of this program is prohibited from giving any competitor of
 Gaussian, Inc. access to this program.  By using this program,
 the user acknowledges that Gaussian, Inc. is engaged in the
 business of creating and licensing software in the field of
 computational chemistry and represents and warrants to the
 licensee that it is not a competitor of Gaussian, Inc. and that
 it will not use this program in any manner prohibited above.
 ---------------------------------------------------------------
  

 Cite this work as:
 Gaussian 09, Revision D.01,
 M. J. Frisch, G. W. Trucks, H. B. Schlegel, G. E. Scuseria, 
 M. A. Robb, J. R. Cheeseman, G. Scalmani, V. Barone, B. Mennucci, 
 G. A. Petersson, H. Nakatsuji, M. Caricato, X. Li, H. P. Hratchian, 
 A. F. Izmaylov, J. Bloino, G. Zheng, J. L. Sonnenberg, M. Hada, 
 M. Ehara, K. Toyota, R. Fukuda, J. Hasegawa, M. Ishida, T. Nakajima, 
 Y. Honda, O. Kitao, H. Nakai, T. Vreven, J. A. Montgomery, Jr., 
 J. E. Peralta, F. Ogliaro, M. Bearpark, J. J. Heyd, E. Brothers, 
 K. N. Kudin, V. N. Staroverov, T. Keith, R. Kobayashi, J. Normand, 
 K. Raghavachari, A. Rendell, J. C. Burant, S. S. Iyengar, J. Tomasi, 
 M. Cossi, N. Rega, J. M. Millam, M. Klene, J. E. Knox, J. B. Cross, 
 V. Bakken, C. Adamo, J. Jaramillo, R. Gomperts, R. E. Stratmann, 
 O. Yazyev, A. J. Austin, R. Cammi, C. Pomelli, J. W. Ochterski, 
 R. L. Martin, K. Morokuma, V. G. Zakrzewski, G. A. Voth, 
 P. Salvador, J. J. Dannenberg, S. Dapprich, A. D. Daniels, 
 O. Farkas, J. B. Foresman, J. V. Ortiz, J. Cioslowski, 
 and D. J. Fox, Gaussian, Inc., Wallingford CT, 2013.
 
 ******************************************
 Gaussian 09:  EM64L-G09RevD.01 24-Apr-2013
                 9-Jun-2015 
 ******************************************
 %mem=4096mb
 %NProcShared=4
 Will use up to    4 processors via shared memory.
 %chk=02-dielsalder-p.chk
 ----------------------------------------------------------------------
 #p pbe1pbe EmpiricalDispersion=GD3BJ def2svp geom=allcheck guess=read 
 integral=(grid=ultrafine) freq scf=(conver=10,xqc) pop=(hirshfeld,cm5)
  density=current iop(7/33=1) iop(6/80=1)
 ----------------------------------------------------------------------
 1/10=4,29=7,30=1,38=1/1,3;
 2/12=2,40=1/2;
 3/5=43,7=101,11=2,14=-4,16=1,25=1,30=1,71=2,74=-13,75=-5,116=-2,124=41,140=1/1,2,3;
 4/5=1/1;
 5/5=2,6=10,8=3,13=1,38=6,98=1/2,8;
 8/6=4,10=90,11=11/1;
 11/6=1,8=1,9=11,15=111,16=1/1,2,10;
 10/6=1/2;
 6/7=2,8=2,9=2,10=2,18=1,22=-1,28=1,79=2,80=1/1;
 7/8=1,10=1,25=1,33=1/1,2,3,16;
 1/10=4,30=1/3;
 99//99;
 Leave Link    1 at Tue Jun  9 16:09:01 2015, MaxMem=   536870912 cpu:         0.4
 (Enter /usr/local/research/Gaussian09/g09-revD.01/g09/l101.exe)
 Structure from the checkpoint file:  "02-dielsalder-p.chk"
 ------------------------
 -- Dielsalder Product --
 ------------------------
 Charge =  0 Multiplicity = 1
 Redundant internal coordinates found in file.
 C,0,0.222775,0.249503,-1.121016
 H,0,0.513408,0.478049,-2.15538
 C,0,-1.121974,0.779675,-0.670376
 H,0,-1.96479,0.994613,-1.330675
 C,0,-1.121974,0.779675,0.670376
 H,0,-1.96479,0.994613,1.330675
 C,0,0.222775,0.249503,1.121016
 H,0,0.513408,0.478049,2.15538
 C,0,0.222775,-1.267918,-0.774294
 H,0,-0.645913,-1.785439,-1.2062
 H,0,1.126798,-1.752112,-1.17531
 C,0,0.222775,-1.267918,0.774294
 H,0,1.126798,-1.752112,1.17531
 H,0,-0.645913,-1.785439,1.2062
 C,0,1.122232,0.791649,0.
 H,0,2.13456,0.355201,0.
 H,0,1.190132,1.889557,0.
 Recover connectivity data from disk.
 NAtoms=     17 NQM=       17 NQMF=       0 NMMI=      0 NMMIF=      0
                NMic=       0 NMicF=      0.
                    Isotopes and Nuclear Properties:
 (Nuclear quadrupole moments (NQMom) in fm**2, nuclear magnetic moments (NMagM)
  in nuclear magnetons)

  Atom         1           2           3           4           5           6           7           8           9          10
 IAtWgt=          12           1          12           1          12           1          12           1          12           1
 AtmWgt=  12.0000000   1.0078250  12.0000000   1.0078250  12.0000000   1.0078250  12.0000000   1.0078250  12.0000000   1.0078250
 NucSpn=           0           1           0           1           0           1           0           1           0           1
 AtZEff=  -3.6000000  -1.0000000  -3.6000000  -1.0000000  -3.6000000  -1.0000000  -3.6000000  -1.0000000  -3.6000000  -1.0000000
 NQMom=    0.0000000   0.0000000   0.0000000   0.0000000   0.0000000   0.0000000   0.0000000   0.0000000   0.0000000   0.0000000
 NMagM=    0.0000000   2.7928460   0.0000000   2.7928460   0.0000000   2.7928460   0.0000000   2.7928460   0.0000000   2.7928460
 AtZNuc=   6.0000000   1.0000000   6.0000000   1.0000000   6.0000000   1.0000000   6.0000000   1.0000000   6.0000000   1.0000000

  Atom        11          12          13          14          15          16          17
 IAtWgt=           1          12           1           1          12           1           1
 AtmWgt=   1.0078250  12.0000000   1.0078250   1.0078250  12.0000000   1.0078250   1.0078250
 NucSpn=           1           0           1           1           0           1           1
 AtZEff=  -1.0000000  -3.6000000  -1.0000000  -1.0000000  -3.6000000  -1.0000000  -1.0000000
 NQMom=    0.0000000   0.0000000   0.0000000   0.0000000   0.0000000   0.0000000   0.0000000
 NMagM=    2.7928460   0.0000000   2.7928460   2.7928460   0.0000000   2.7928460   2.7928460
 AtZNuc=   1.0000000   6.0000000   1.0000000   1.0000000   6.0000000   1.0000000   1.0000000
 Leave Link  101 at Tue Jun  9 16:09:02 2015, MaxMem=   536870912 cpu:         0.4
 (Enter /usr/local/research/Gaussian09/g09-revD.01/g09/l103.exe)

 GradGradGradGradGradGradGradGradGradGradGradGradGradGradGradGradGradGrad
 Berny optimization.
 Initialization pass.
                           ----------------------------
                           !    Initial Parameters    !
                           ! (Angstroms and Degrees)  !
 --------------------------                            --------------------------
 ! Name  Definition              Value          Derivative Info.                !
 --------------------------------------------------------------------------------
 ! R1    R(1,2)                  1.0985         calculate D2E/DX2 analytically  !
 ! R2    R(1,3)                  1.5141         calculate D2E/DX2 analytically  !
 ! R3    R(1,9)                  1.5565         calculate D2E/DX2 analytically  !
 ! R4    R(1,15)                 1.5361         calculate D2E/DX2 analytically  !
 ! R5    R(3,4)                  1.092          calculate D2E/DX2 analytically  !
 ! R6    R(3,5)                  1.3408         calculate D2E/DX2 analytically  !
 ! R7    R(5,6)                  1.092          calculate D2E/DX2 analytically  !
 ! R8    R(5,7)                  1.5141         calculate D2E/DX2 analytically  !
 ! R9    R(7,8)                  1.0985         calculate D2E/DX2 analytically  !
 ! R10   R(7,12)                 1.5565         calculate D2E/DX2 analytically  !
 ! R11   R(7,15)                 1.5361         calculate D2E/DX2 analytically  !
 ! R12   R(9,10)                 1.0995         calculate D2E/DX2 analytically  !
 ! R13   R(9,11)                 1.1011         calculate D2E/DX2 analytically  !
 ! R14   R(9,12)                 1.5486         calculate D2E/DX2 analytically  !
 ! R15   R(12,13)                1.1011         calculate D2E/DX2 analytically  !
 ! R16   R(12,14)                1.0995         calculate D2E/DX2 analytically  !
 ! R17   R(15,16)                1.1024         calculate D2E/DX2 analytically  !
 ! R18   R(15,17)                1.1            calculate D2E/DX2 analytically  !
 ! A1    A(2,1,3)              116.2569         calculate D2E/DX2 analytically  !
 ! A2    A(2,1,9)              114.3676         calculate D2E/DX2 analytically  !
 ! A3    A(2,1,15)             117.3122         calculate D2E/DX2 analytically  !
 ! A4    A(3,1,9)              105.9656         calculate D2E/DX2 analytically  !
 ! A5    A(3,1,15)             100.3269         calculate D2E/DX2 analytically  !
 ! A6    A(9,1,15)             100.4576         calculate D2E/DX2 analytically  !
 ! A7    A(1,3,4)              125.059          calculate D2E/DX2 analytically  !
 ! A8    A(1,3,5)              107.3152         calculate D2E/DX2 analytically  !
 ! A9    A(4,3,5)              127.2038         calculate D2E/DX2 analytically  !
 ! A10   A(3,5,6)              127.2038         calculate D2E/DX2 analytically  !
 ! A11   A(3,5,7)              107.3152         calculate D2E/DX2 analytically  !
 ! A12   A(6,5,7)              125.059          calculate D2E/DX2 analytically  !
 ! A13   A(5,7,8)              116.2569         calculate D2E/DX2 analytically  !
 ! A14   A(5,7,12)             105.9656         calculate D2E/DX2 analytically  !
 ! A15   A(5,7,15)             100.3269         calculate D2E/DX2 analytically  !
 ! A16   A(8,7,12)             114.3676         calculate D2E/DX2 analytically  !
 ! A17   A(8,7,15)             117.3122         calculate D2E/DX2 analytically  !
 ! A18   A(12,7,15)            100.4576         calculate D2E/DX2 analytically  !
 ! A19   A(1,9,10)             111.7986         calculate D2E/DX2 analytically  !
 ! A20   A(1,9,11)             110.3375         calculate D2E/DX2 analytically  !
 ! A21   A(1,9,12)             102.8708         calculate D2E/DX2 analytically  !
 ! A22   A(10,9,11)            107.3736         calculate D2E/DX2 analytically  !
 ! A23   A(10,9,12)            113.1292         calculate D2E/DX2 analytically  !
 ! A24   A(11,9,12)            111.3572         calculate D2E/DX2 analytically  !
 ! A25   A(7,12,9)             102.8708         calculate D2E/DX2 analytically  !
 ! A26   A(7,12,13)            110.3375         calculate D2E/DX2 analytically  !
 ! A27   A(7,12,14)            111.7986         calculate D2E/DX2 analytically  !
 ! A28   A(9,12,13)            111.3572         calculate D2E/DX2 analytically  !
 ! A29   A(9,12,14)            113.1292         calculate D2E/DX2 analytically  !
 ! A30   A(13,12,14)           107.3736         calculate D2E/DX2 analytically  !
 ! A31   A(1,15,7)              93.7355         calculate D2E/DX2 analytically  !
 ! A32   A(1,15,16)            113.4514         calculate D2E/DX2 analytically  !
 ! A33   A(1,15,17)            112.8554         calculate D2E/DX2 analytically  !
 ! A34   A(7,15,16)            113.4514         calculate D2E/DX2 analytically  !
 ! A35   A(7,15,17)            112.8554         calculate D2E/DX2 analytically  !
 ! A36   A(16,15,17)           109.7835         calculate D2E/DX2 analytically  !
 ! D1    D(2,1,3,4)             25.9221         calculate D2E/DX2 analytically  !
 ! D2    D(2,1,3,5)           -161.0927         calculate D2E/DX2 analytically  !
 ! D3    D(9,1,3,4)           -102.3682         calculate D2E/DX2 analytically  !
 ! D4    D(9,1,3,5)             70.617          calculate D2E/DX2 analytically  !
 ! D5    D(15,1,3,4)           153.5073         calculate D2E/DX2 analytically  !
 ! D6    D(15,1,3,5)           -33.5075         calculate D2E/DX2 analytically  !
 ! D7    D(2,1,9,10)           -75.1939         calculate D2E/DX2 analytically  !
 ! D8    D(2,1,9,11)            44.2269         calculate D2E/DX2 analytically  !
 ! D9    D(2,1,9,12)           163.1147         calculate D2E/DX2 analytically  !
 ! D10   D(3,1,9,10)            54.2061         calculate D2E/DX2 analytically  !
 ! D11   D(3,1,9,11)           173.6268         calculate D2E/DX2 analytically  !
 ! D12   D(3,1,9,12)           -67.4854         calculate D2E/DX2 analytically  !
 ! D13   D(15,1,9,10)          158.235          calculate D2E/DX2 analytically  !
 ! D14   D(15,1,9,11)          -82.3442         calculate D2E/DX2 analytically  !
 ! D15   D(15,1,9,12)           36.5436         calculate D2E/DX2 analytically  !
 ! D16   D(2,1,15,7)           177.3158         calculate D2E/DX2 analytically  !
 ! D17   D(2,1,15,16)          -65.1001         calculate D2E/DX2 analytically  !
 ! D18   D(2,1,15,17)           60.5776         calculate D2E/DX2 analytically  !
 ! D19   D(3,1,15,7)            50.4316         calculate D2E/DX2 analytically  !
 ! D20   D(3,1,15,16)          168.0156         calculate D2E/DX2 analytically  !
 ! D21   D(3,1,15,17)          -66.3067         calculate D2E/DX2 analytically  !
 ! D22   D(9,1,15,7)           -58.1071         calculate D2E/DX2 analytically  !
 ! D23   D(9,1,15,16)           59.477          calculate D2E/DX2 analytically  !
 ! D24   D(9,1,15,17)         -174.8454         calculate D2E/DX2 analytically  !
 ! D25   D(1,3,5,6)           -172.7898         calculate D2E/DX2 analytically  !
 ! D26   D(1,3,5,7)              0.0            calculate D2E/DX2 analytically  !
 ! D27   D(4,3,5,6)              0.0            calculate D2E/DX2 analytically  !
 ! D28   D(4,3,5,7)            172.7898         calculate D2E/DX2 analytically  !
 ! D29   D(3,5,7,8)            161.0927         calculate D2E/DX2 analytically  !
 ! D30   D(3,5,7,12)           -70.617          calculate D2E/DX2 analytically  !
 ! D31   D(3,5,7,15)            33.5075         calculate D2E/DX2 analytically  !
 ! D32   D(6,5,7,8)            -25.9221         calculate D2E/DX2 analytically  !
 ! D33   D(6,5,7,12)           102.3682         calculate D2E/DX2 analytically  !
 ! D34   D(6,5,7,15)          -153.5073         calculate D2E/DX2 analytically  !
 ! D35   D(5,7,12,9)            67.4854         calculate D2E/DX2 analytically  !
 ! D36   D(5,7,12,13)         -173.6268         calculate D2E/DX2 analytically  !
 ! D37   D(5,7,12,14)          -54.2061         calculate D2E/DX2 analytically  !
 ! D38   D(8,7,12,9)          -163.1147         calculate D2E/DX2 analytically  !
 ! D39   D(8,7,12,13)          -44.2269         calculate D2E/DX2 analytically  !
 ! D40   D(8,7,12,14)           75.1939         calculate D2E/DX2 analytically  !
 ! D41   D(15,7,12,9)          -36.5436         calculate D2E/DX2 analytically  !
 ! D42   D(15,7,12,13)          82.3442         calculate D2E/DX2 analytically  !
 ! D43   D(15,7,12,14)        -158.235          calculate D2E/DX2 analytically  !
 ! D44   D(5,7,15,1)           -50.4316         calculate D2E/DX2 analytically  !
 ! D45   D(5,7,15,16)         -168.0156         calculate D2E/DX2 analytically  !
 ! D46   D(5,7,15,17)           66.3067         calculate D2E/DX2 analytically  !
 ! D47   D(8,7,15,1)          -177.3158         calculate D2E/DX2 analytically  !
 ! D48   D(8,7,15,16)           65.1001         calculate D2E/DX2 analytically  !
 ! D49   D(8,7,15,17)          -60.5776         calculate D2E/DX2 analytically  !
 ! D50   D(12,7,15,1)           58.1071         calculate D2E/DX2 analytically  !
 ! D51   D(12,7,15,16)         -59.477          calculate D2E/DX2 analytically  !
 ! D52   D(12,7,15,17)         174.8454         calculate D2E/DX2 analytically  !
 ! D53   D(1,9,12,7)             0.0            calculate D2E/DX2 analytically  !
 ! D54   D(1,9,12,13)         -118.1735         calculate D2E/DX2 analytically  !
 ! D55   D(1,9,12,14)          120.7844         calculate D2E/DX2 analytically  !
 ! D56   D(10,9,12,7)         -120.7844         calculate D2E/DX2 analytically  !
 ! D57   D(10,9,12,13)         121.0422         calculate D2E/DX2 analytically  !
 ! D58   D(10,9,12,14)           0.0            calculate D2E/DX2 analytically  !
 ! D59   D(11,9,12,7)          118.1735         calculate D2E/DX2 analytically  !
 ! D60   D(11,9,12,13)           0.0            calculate D2E/DX2 analytically  !
 ! D61   D(11,9,12,14)        -121.0422         calculate D2E/DX2 analytically  !
 --------------------------------------------------------------------------------
 Trust Radius=3.00D-01 FncErr=1.00D-07 GrdErr=1.00D-07
 Number of steps in this run=      2 maximum allowed number of steps=      2.
 GradGradGradGradGradGradGradGradGradGradGradGradGradGradGradGradGradGrad

 Leave Link  103 at Tue Jun  9 16:09:02 2015, MaxMem=   536870912 cpu:         0.0
 (Enter /usr/local/research/Gaussian09/g09-revD.01/g09/l202.exe)
                          Input orientation:                          
 ---------------------------------------------------------------------
 Center     Atomic      Atomic             Coordinates (Angstroms)
 Number     Number       Type             X           Y           Z
 ---------------------------------------------------------------------
      1          6           0        0.222775    0.249503   -1.121016
      2          1           0        0.513408    0.478049   -2.155380
      3          6           0       -1.121974    0.779675   -0.670376
      4          1           0       -1.964790    0.994613   -1.330675
      5          6           0       -1.121974    0.779675    0.670376
      6          1           0       -1.964790    0.994613    1.330675
      7          6           0        0.222775    0.249503    1.121016
      8          1           0        0.513408    0.478049    2.155380
      9          6           0        0.222775   -1.267918   -0.774294
     10          1           0       -0.645913   -1.785439   -1.206200
     11          1           0        1.126798   -1.752112   -1.175310
     12          6           0        0.222775   -1.267918    0.774294
     13          1           0        1.126798   -1.752112    1.175310
     14          1           0       -0.645913   -1.785439    1.206200
     15          6           0        1.122232    0.791649    0.000000
     16          1           0        2.134560    0.355201    0.000000
     17          1           0        1.190132    1.889557    0.000000
 ---------------------------------------------------------------------
                    Distance matrix (angstroms):
                    1          2          3          4          5
     1  C    0.000000
     2  H    1.098458   0.000000
     3  C    1.514103   2.229504   0.000000
     4  H    2.320471   2.662413   1.092031   0.000000
     5  C    2.301851   3.278773   1.340752   2.181913   0.000000
     6  H    3.369187   4.308234   2.181913   2.661350   1.092031
     7  C    2.242032   3.297191   2.301851   3.369187   1.514103
     8  H    3.297191   4.310760   3.278773   4.308234   2.229504
     9  C    1.556529   2.245054   2.451894   3.195942   2.843951
    10  H    2.214241   2.714470   2.663372   3.079549   3.213718
    11  H    2.196968   2.512051   3.423723   4.138424   3.856615
    12  C    2.427914   3.422844   2.843951   3.786209   2.451894
    13  H    3.177551   4.055041   3.856615   4.835533   3.423723
    14  H    3.211159   4.215166   3.213718   3.987964   2.663372
    15  C    1.536106   2.261565   2.342223   3.367728   2.342223
    16  H    2.218732   2.699794   3.351805   4.357088   3.351805
    17  H    2.209578   2.663827   2.650863   3.539089   2.650863
                    6          7          8          9         10
     6  H    0.000000
     7  C    2.320471   0.000000
     8  H    2.662413   1.098458   0.000000
     9  C    3.786209   2.427914   3.422844   0.000000
    10  H    3.987964   3.211159   4.215166   1.099541   0.000000
    11  H    4.835533   3.177551   4.055041   1.101143   1.773293
    12  C    3.195942   1.556529   2.245054   1.548588   2.223691
    13  H    4.138424   2.196968   2.512051   2.202875   2.969041
    14  H    3.079549   2.214241   2.714470   2.223691   2.412400
    15  C    3.367728   1.536106   2.261565   2.377051   3.350021
    16  H    4.357088   2.218732   2.699794   2.624684   3.710564
    17  H    3.539089   2.209578   2.663827   3.391896   4.281539
                   11         12         13         14         15
    11  H    0.000000
    12  C    2.202875   0.000000
    13  H    2.350620   1.101143   0.000000
    14  H    2.969041   1.099541   1.773293   0.000000
    15  C    2.802159   2.377051   2.802159   3.350021   0.000000
    16  H    2.614901   2.624684   2.614901   3.710564   1.102404
    17  H    3.827155   3.391896   3.827155   4.281539   1.100006
                   16         17
    16  H    0.000000
    17  H    1.801719   0.000000
 Stoichiometry    C7H10
 Framework group  CS[SG(CH2),X(C6H8)]
 Deg. of freedom    24
 Full point group                 CS      NOp   2
 RotChk:  IX=0 Diff= 2.90D-15
 Largest Abelian subgroup         CS      NOp   2
 Largest concise Abelian subgroup CS      NOp   2
                         Standard orientation:                         
 ---------------------------------------------------------------------
 Center     Atomic      Atomic             Coordinates (Angstroms)
 Number     Number       Type             X           Y           Z
 ---------------------------------------------------------------------
      1          6           0       -0.222775    0.249503    1.121016
      2          1           0       -0.513408    0.478049    2.155380
      3          6           0        1.121974    0.779675    0.670376
      4          1           0        1.964790    0.994613    1.330675
      5          6           0        1.121974    0.779675   -0.670376
      6          1           0        1.964790    0.994613   -1.330675
      7          6           0       -0.222775    0.249503   -1.121016
      8          1           0       -0.513408    0.478049   -2.155380
      9          6           0       -0.222775   -1.267918    0.774294
     10          1           0        0.645913   -1.785439    1.206200
     11          1           0       -1.126798   -1.752112    1.175310
     12          6           0       -0.222775   -1.267918   -0.774294
     13          1           0       -1.126798   -1.752112   -1.175310
     14          1           0        0.645913   -1.785439   -1.206200
     15          6           0       -1.122232    0.791649    0.000000
     16          1           0       -2.134560    0.355201    0.000000
     17          1           0       -1.190132    1.889557    0.000000
 ---------------------------------------------------------------------
 Rotational constants (GHZ):      3.9566630      3.4529381      3.0334339
 Leave Link  202 at Tue Jun  9 16:09:02 2015, MaxMem=   536870912 cpu:         0.0
 (Enter /usr/local/research/Gaussian09/g09-revD.01/g09/l301.exe)
 Standard basis: def2SVP (5D, 7F)
 Ernie: Thresh=  0.10000D-02 Tol=  0.10000D-05 Strict=F.
 There are    84 symmetry adapted cartesian basis functions of A'  symmetry.
 There are    71 symmetry adapted cartesian basis functions of A"  symmetry.
 There are    80 symmetry adapted basis functions of A'  symmetry.
 There are    68 symmetry adapted basis functions of A"  symmetry.
   148 basis functions,   245 primitive gaussians,   155 cartesian basis functions
    26 alpha electrons       26 beta electrons
       nuclear repulsion energy       308.5395895726 Hartrees.
 IExCor= 1009 DFT=T Ex+Corr=PBE1PBE ExCW=0 ScaHFX=  0.250000
 ScaDFX=  0.750000  0.750000  1.000000  1.000000 ScalE2=  1.000000  1.000000
 IRadAn=      5 IRanWt=     -1 IRanGd=            0 ICorTp=0 IEmpDi=141
 NAtoms=   17 NActive=   17 NUniq=   10 SFac= 2.89D+00 NAtFMM=   60 NAOKFM=F Big=F
 Integral buffers will be    131072 words long.
 Raffenetti 2 integral format.
 Two-electron integral symmetry is turned on.
 R6Disp:  Grimme-D3(BJ) Dispersion energy=       -0.0144159140 Hartrees.
 Nuclear repulsion after empirical dispersion term =      308.5251736586 Hartrees.
 Leave Link  301 at Tue Jun  9 16:09:02 2015, MaxMem=   536870912 cpu:         0.1
 (Enter /usr/local/research/Gaussian09/g09-revD.01/g09/l302.exe)
 NPDir=0 NMtPBC=     1 NCelOv=     1 NCel=       1 NClECP=     1 NCelD=      1
         NCelK=      1 NCelE2=     1 NClLst=     1 CellRange=     0.0.
 One-electron integrals computed using PRISM.
 One-electron integral symmetry used in STVInt
   2 Symmetry operations used in ECPInt.
 ECPInt:  NShTT=    2628 NPrTT=    9166 LenC2=    2629 LenP2D=    7889.
 LDataN:  DoStor=T MaxTD1= 4 Len=   56
 NBasis=   148 RedAO= T EigKep=  3.53D-04  NBF=    80    68
 NBsUse=   148 1.00D-06 EigRej= -1.00D+00 NBFU=    80    68
 Precomputing XC quadrature grid using
 IXCGrd= 4 IRadAn=           5 IRanWt=          -1 IRanGd=           0 AccXCQ= 0.00D+00.
 Generated NRdTot=       0 NPtTot=           0 NUsed=           0 NTot=          32
 NSgBfM=   155   155   155   155   155 MxSgAt=    17 MxSgA2=    17.
 Leave Link  302 at Tue Jun  9 16:09:02 2015, MaxMem=   536870912 cpu:         1.9
 (Enter /usr/local/research/Gaussian09/g09-revD.01/g09/l303.exe)
 DipDrv:  MaxL=1.
 Leave Link  303 at Tue Jun  9 16:09:03 2015, MaxMem=   536870912 cpu:         0.1
 (Enter /usr/local/research/Gaussian09/g09-revD.01/g09/l401.exe)
 Initial guess from the checkpoint file:  "02-dielsalder-p.chk"
 B after Tr=     0.000000    0.000000    0.000000
         Rot=    1.000000    0.000000    0.000000    0.000000 Ang=   0.00 deg.
 Guess basis will be translated and rotated to current coordinates.
 JPrj=2 DoOrth=T DoCkMO=T.
 Initial guess orbital symmetries:
       Occupied  (A") (A') (A') (A") (A') (A') (A") (A') (A') (A")
                 (A') (A") (A') (A') (A") (A') (A') (A') (A") (A")
                 (A') (A') (A') (A") (A") (A')
       Virtual   (A") (A') (A') (A') (A") (A') (A') (A") (A") (A')
                 (A') (A") (A") (A') (A') (A") (A") (A") (A") (A')
                 (A') (A') (A') (A') (A") (A") (A') (A") (A') (A')
                 (A") (A") (A') (A') (A") (A') (A') (A') (A") (A")
                 (A") (A') (A') (A") (A") (A') (A') (A') (A") (A")
                 (A') (A") (A') (A") (A') (A") (A') (A") (A') (A")
                 (A') (A") (A') (A") (A') (A") (A') (A') (A") (A')
                 (A") (A') (A') (A") (A') (A') (A") (A') (A') (A")
                 (A') (A') (A") (A') (A") (A") (A") (A') (A") (A')
                 (A") (A') (A') (A") (A') (A") (A") (A') (A") (A')
                 (A') (A") (A') (A") (A") (A') (A") (A') (A") (A')
                 (A") (A") (A') (A') (A") (A') (A") (A") (A') (A')
                 (A") (A")
 The electronic state of the initial guess is 1-A'.
 Leave Link  401 at Tue Jun  9 16:09:03 2015, MaxMem=   536870912 cpu:         0.4
 (Enter /usr/local/research/Gaussian09/g09-revD.01/g09/l502.exe)
 Closed shell SCF:
 Using DIIS extrapolation, IDIIS=  1040.
 Integral symmetry usage will be decided dynamically.
 Keep R1 ints in memory in symmetry-blocked form, NReq=91299597.
 IVT=       80355 IEndB=       80355 NGot=   536870912 MDV=   506363315
 LenX=   506363315 LenY=   506338849
 Requested convergence on RMS density matrix=1.00D-10 within  64 cycles.
 Requested convergence on MAX density matrix=1.00D-08.
 Requested convergence on             energy=1.00D-08.
 No special actions if energy rises.
 FoFCou: FMM=F IPFlag=           0 FMFlag=           0 FMFlg1=           0
         NFxFlg=           0 DoJE=F BraDBF=F KetDBF=F FulRan=T
         wScrn=  0.000000 ICntrl=     600 IOpCl=  0 I1Cent=           0 NGrid=           0
         NMat0=    1 NMatS0=  11026 NMatT0=    0 NMatD0=    1 NMtDS0=    0 NMtDT0=    0
 Petite list used in FoFCou.

 Cycle   1  Pass 1  IDiag  1:
 E= -272.225335765789    
 DIIS: error= 3.49D-11 at cycle   1 NSaved=   1.
 NSaved= 1 IEnMin= 1 EnMin= -272.225335765789     IErMin= 1 ErrMin= 3.49D-11
 ErrMax= 3.49D-11  0.00D+00 EMaxC= 1.00D-01 BMatC= 2.80D-19 BMatP= 2.80D-19
 IDIUse=1 WtCom= 1.00D+00 WtEn= 0.00D+00
 Coeff-Com:  0.100D+01
 Coeff:      0.100D+01
 Gap=     0.270 Goal=   None    Shift=    0.000
 Skip diagonalization as Alpha Fock matrix is already diagonal.
 RMSDP=0.00D+00 MaxDP=0.00D+00              OVMax= 0.00D+00

 SCF Done:  E(RPBE1PBE) =  -272.225335766     A.U. after    1 cycles
            NFock=  1  Conv=0.00D+00     -V/T= 2.0119
 KE= 2.690356254068D+02 PE=-1.246172244881D+03 EE= 3.963861100496D+02
 Leave Link  502 at Tue Jun  9 16:09:06 2015, MaxMem=   536870912 cpu:        13.4
 (Enter /usr/local/research/Gaussian09/g09-revD.01/g09/l508.exe)
 QCSCF skips out because SCF is already converged.
 Leave Link  508 at Tue Jun  9 16:09:06 2015, MaxMem=   536870912 cpu:         0.0
 (Enter /usr/local/research/Gaussian09/g09-revD.01/g09/l801.exe)
 DoSCS=F DFT=T ScalE2(SS,OS)=  1.000000  1.000000
 Range of M.O.s used for correlation:     1   148
 NBasis=   148 NAE=    26 NBE=    26 NFC=     0 NFV=     0
 NROrb=    148 NOA=    26 NOB=    26 NVA=   122 NVB=   122
 Leave Link  801 at Tue Jun  9 16:09:07 2015, MaxMem=   536870912 cpu:         0.1
 (Enter /usr/local/research/Gaussian09/g09-revD.01/g09/l1101.exe)
 Using compressed storage, NAtomX=    17.
 Will process     18 centers per pass.
   2 Symmetry operations used in ECPInt.
 ECPInt:  NShTT=    2628 NPrTT=    9166 LenC2=    2629 LenP2D=    7889.
 LDataN:  DoStor=T MaxTD1= 5 Len=  102
 R6Disp: Adding Grimme-D3(BJ) dispersion energy 1st derivatives to the gradient.
 Leave Link 1101 at Tue Jun  9 16:09:07 2015, MaxMem=   536870912 cpu:         0.9
 (Enter /usr/local/research/Gaussian09/g09-revD.01/g09/l1102.exe)
 Symmetrizing basis deriv contribution to polar:
 IMax=3 JMax=2 DiffMx= 0.00D+00
 Leave Link 1102 at Tue Jun  9 16:09:07 2015, MaxMem=   536870912 cpu:         0.1
 (Enter /usr/local/research/Gaussian09/g09-revD.01/g09/l1110.exe)
 Forming Gx(P) for the SCF density, NAtomX=    17.
 Integral derivatives from FoFJK, PRISM(SPDF).
 Do as many integral derivatives as possible in FoFJK.
 G2DrvN: MDV=     536870672.
 G2DrvN: will do    18 centers at a time, making    1 passes.
 Calling FoFCou, ICntrl=  3107 FMM=F I1Cent=   0 AccDes= 0.00D+00.
 FoFJK:  IHMeth= 1 ICntrl=    3107 DoSepK=F KAlg= 0 I1Cent=   0 FoldK=F
 IRaf=         0 NMat=   1 IRICut=       1 DoRegI=T DoRafI=F ISym2E= 1.
 FoFCou: FMM=F IPFlag=           0 FMFlag=      100000 FMFlg1=           0
         NFxFlg=           0 DoJE=F BraDBF=F KetDBF=F FulRan=T
         wScrn=  0.000000 ICntrl=    3107 IOpCl=  0 I1Cent=           0 NGrid=           0
         NMat0=    1 NMatS0=      1 NMatT0=    0 NMatD0=    1 NMtDS0=    0 NMtDT0=    0
 Petite list used in FoFCou.
 End of G2Drv F.D. properties file   721 does not exist.
 End of G2Drv F.D. properties file   722 does not exist.
 End of G2Drv F.D. properties file   788 does not exist.
 Leave Link 1110 at Tue Jun  9 16:10:13 2015, MaxMem=   536870912 cpu:       261.5
 (Enter /usr/local/research/Gaussian09/g09-revD.01/g09/l1002.exe)
 Minotr:  Closed shell wavefunction.
          IDoAtm=11111111111111111
          Direct CPHF calculation.
          Differentiating once with respect to electric field.
                with respect to dipole field.
          Differentiating once with respect to nuclear coordinates.
          Using symmetry in CPHF.
          Requested convergence is 1.0D-08 RMS, and 1.0D-07 maximum.
          Secondary convergence is 1.0D-12 RMS, and 1.0D-12 maximum.
          NewPWx=T KeepS1=F KeepF1=F KeepIn=T MapXYZ=F SortEE=F KeepMc=T.
          MDV=     536870590 using IRadAn=       1.
 Generate precomputed XC quadrature information.
 Keep R1 ints in memory in symmetry-blocked form, NReq=91226273.
 FoFCou: FMM=F IPFlag=           0 FMFlag=           0 FMFlg1=           0
         NFxFlg=           0 DoJE=F BraDBF=F KetDBF=F FulRan=T
         wScrn=  0.000000 ICntrl=     600 IOpCl=  0 I1Cent=           0 NGrid=           0
         NMat0=    1 NMatS0=  11026 NMatT0=    0 NMatD0=    1 NMtDS0=    0 NMtDT0=    0
 Petite list used in FoFCou.
          Solving linear equations simultaneously, MaxMat=       0.
          There are    33 degrees of freedom in the 1st order CPHF.  IDoFFX=4 NUNeed=    33.
     33 vectors produced by pass  0 Test12= 9.61D-15 3.03D-09 XBig12= 5.98D+01 4.77D+00.
 AX will form    33 AO Fock derivatives at one time.
     33 vectors produced by pass  1 Test12= 9.61D-15 3.03D-09 XBig12= 1.80D+01 1.65D+00.
     33 vectors produced by pass  2 Test12= 9.61D-15 3.03D-09 XBig12= 4.11D-01 1.35D-01.
     33 vectors produced by pass  3 Test12= 9.61D-15 3.03D-09 XBig12= 2.53D-03 6.77D-03.
     33 vectors produced by pass  4 Test12= 9.61D-15 3.03D-09 XBig12= 8.52D-06 3.49D-04.
     31 vectors produced by pass  5 Test12= 9.61D-15 3.03D-09 XBig12= 1.29D-08 1.39D-05.
      8 vectors produced by pass  6 Test12= 9.61D-15 3.03D-09 XBig12= 1.69D-11 5.48D-07.
      3 vectors produced by pass  7 Test12= 9.61D-15 3.03D-09 XBig12= 1.82D-14 1.57D-08.
 InvSVY:  IOpt=1 It=  1 EMax= 1.78D-15
 Solved reduced A of dimension   207 with    33 vectors.
 FullF1:  Do perturbations    1 to    33.
 Isotropic polarizability for W=    0.000000       67.61 Bohr**3.
 End of Minotr F.D. properties file   721 does not exist.
 End of Minotr F.D. properties file   722 does not exist.
 End of Minotr F.D. properties file   788 does not exist.
 Leave Link 1002 at Tue Jun  9 16:12:07 2015, MaxMem=   536870912 cpu:       458.2
 (Enter /usr/local/research/Gaussian09/g09-revD.01/g09/l601.exe)
 Copying SCF densities to generalized density rwf, IOpCl= 0 IROHF=0.

 **********************************************************************

            Population analysis using the SCF density.

 **********************************************************************

 Orbital symmetries:
       Occupied  (A") (A') (A') (A") (A') (A') (A") (A') (A') (A")
                 (A') (A") (A') (A') (A") (A') (A') (A') (A") (A")
                 (A') (A') (A') (A") (A") (A')
       Virtual   (A") (A') (A') (A') (A") (A') (A') (A") (A") (A')
                 (A') (A") (A") (A') (A') (A") (A") (A") (A") (A')
                 (A') (A') (A') (A') (A") (A") (A') (A") (A') (A')
                 (A") (A") (A') (A') (A") (A') (A') (A') (A") (A")
                 (A") (A') (A') (A") (A") (A') (A') (A') (A") (A")
                 (A') (A") (A') (A") (A') (A") (A') (A") (A') (A")
                 (A') (A") (A') (A") (A') (A") (A') (A') (A") (A')
                 (A") (A') (A') (A") (A') (A') (A") (A') (A') (A")
                 (A') (A') (A") (A') (A") (A") (A") (A') (A") (A')
                 (A") (A') (A') (A") (A') (A") (A") (A') (A") (A')
                 (A') (A") (A') (A") (A") (A') (A") (A') (A") (A')
                 (A") (A") (A') (A') (A") (A') (A") (A") (A') (A')
                 (A") (A")
 The electronic state is 1-A'.
 Alpha  occ. eigenvalues --  -10.23662 -10.23660 -10.22817 -10.22808 -10.22665
 Alpha  occ. eigenvalues --  -10.22552 -10.22470  -0.90534  -0.75604  -0.73009
 Alpha  occ. eigenvalues --   -0.70668  -0.59045  -0.56720  -0.52828  -0.52049
 Alpha  occ. eigenvalues --   -0.48756  -0.45167  -0.40602  -0.39215  -0.35871
 Alpha  occ. eigenvalues --   -0.35811  -0.35254  -0.34503  -0.33726  -0.31180
 Alpha  occ. eigenvalues --   -0.24950
 Alpha virt. eigenvalues --    0.02058   0.06851   0.10414   0.10882   0.12067
 Alpha virt. eigenvalues --    0.13015   0.14690   0.14784   0.15659   0.15903
 Alpha virt. eigenvalues --    0.18412   0.19488   0.20211   0.21403   0.23781
 Alpha virt. eigenvalues --    0.26410   0.29794   0.32739   0.36506   0.37954
 Alpha virt. eigenvalues --    0.44761   0.46492   0.47594   0.49243   0.51452
 Alpha virt. eigenvalues --    0.54292   0.54845   0.59692   0.60900   0.62051
 Alpha virt. eigenvalues --    0.62164   0.63594   0.65439   0.65908   0.67236
 Alpha virt. eigenvalues --    0.67545   0.68017   0.70542   0.70605   0.70934
 Alpha virt. eigenvalues --    0.71310   0.71968   0.73020   0.75038   0.75966
 Alpha virt. eigenvalues --    0.76508   0.80518   0.83066   0.83400   0.87683
 Alpha virt. eigenvalues --    0.98615   0.98761   1.06760   1.10544   1.14038
 Alpha virt. eigenvalues --    1.18623   1.26791   1.29942   1.34129   1.34802
 Alpha virt. eigenvalues --    1.40559   1.44899   1.47445   1.57484   1.57927
 Alpha virt. eigenvalues --    1.63474   1.65535   1.68727   1.70133   1.70575
 Alpha virt. eigenvalues --    1.72198   1.73789   1.78099   1.78137   1.79708
 Alpha virt. eigenvalues --    1.82364   1.83282   1.84601   1.87326   1.88055
 Alpha virt. eigenvalues --    1.90863   1.94515   1.95204   1.96960   1.97045
 Alpha virt. eigenvalues --    1.98615   2.00398   2.04483   2.05962   2.06169
 Alpha virt. eigenvalues --    2.07621   2.11239   2.14269   2.16360   2.20155
 Alpha virt. eigenvalues --    2.24431   2.27650   2.33419   2.33603   2.40354
 Alpha virt. eigenvalues --    2.45953   2.48608   2.51527   2.51948   2.56680
 Alpha virt. eigenvalues --    2.62141   2.64011   2.66952   2.67994   2.75755
 Alpha virt. eigenvalues --    2.78496   2.84069   2.84696   2.88653   2.93661
 Alpha virt. eigenvalues --    2.95319   2.97871   3.01353   3.07165   3.07662
 Alpha virt. eigenvalues --    3.14028   3.40615
          Condensed to atoms (all electrons):
               1          2          3          4          5          6
     1  C    5.166887   0.394380   0.256351  -0.056148  -0.046766   0.012574
     2  H    0.394380   0.663872  -0.037571  -0.004666   0.011377  -0.000278
     3  C    0.256351  -0.037571   5.077812   0.439662   0.523003  -0.061393
     4  H   -0.056148  -0.004666   0.439662   0.646738  -0.061393  -0.007706
     5  C   -0.046766   0.011377   0.523003  -0.061393   5.077812   0.439662
     6  H    0.012574  -0.000278  -0.061393  -0.007706   0.439662   0.646738
     7  C   -0.089925   0.006159  -0.046766   0.012574   0.256351  -0.056148
     8  H    0.006159  -0.000378   0.011377  -0.000278  -0.037571  -0.004666
     9  C    0.386136  -0.034599  -0.039363   0.001168  -0.050702  -0.000889
    10  H   -0.015013   0.000347   0.000443   0.002522  -0.003213  -0.000107
    11  H   -0.011659  -0.005404   0.005153  -0.000318   0.002981   0.000080
    12  C   -0.074724   0.010666  -0.050702  -0.000889  -0.039363   0.001168
    13  H   -0.003799  -0.000157   0.002981   0.000080   0.005153  -0.000318
    14  H    0.001153  -0.000325  -0.003213  -0.000107   0.000443   0.002522
    15  C    0.331034  -0.022544  -0.071619   0.007170  -0.071619   0.007170
    16  H   -0.031815  -0.002679   0.009614  -0.000307   0.009614  -0.000307
    17  H   -0.020632  -0.003878  -0.001518   0.000373  -0.001518   0.000373
               7          8          9         10         11         12
     1  C   -0.089925   0.006159   0.386136  -0.015013  -0.011659  -0.074724
     2  H    0.006159  -0.000378  -0.034599   0.000347  -0.005404   0.010666
     3  C   -0.046766   0.011377  -0.039363   0.000443   0.005153  -0.050702
     4  H    0.012574  -0.000278   0.001168   0.002522  -0.000318  -0.000889
     5  C    0.256351  -0.037571  -0.050702  -0.003213   0.002981  -0.039363
     6  H   -0.056148  -0.004666  -0.000889  -0.000107   0.000080   0.001168
     7  C    5.166887   0.394380  -0.074724   0.001153  -0.003799   0.386136
     8  H    0.394380   0.663872   0.010666  -0.000325  -0.000157  -0.034599
     9  C   -0.074724   0.010666   4.772381   0.349621   0.356245   0.397149
    10  H    0.001153  -0.000325   0.349621   0.665949  -0.030008  -0.004604
    11  H   -0.003799  -0.000157   0.356245  -0.030008   0.673733  -0.011426
    12  C    0.386136  -0.034599   0.397149  -0.004604  -0.011426   4.772381
    13  H   -0.011659  -0.005404  -0.011426   0.005731  -0.016418   0.356245
    14  H   -0.015013   0.000347  -0.004604  -0.014457   0.005731   0.349621
    15  C    0.331034  -0.022544  -0.102719   0.009797  -0.000133  -0.102719
    16  H   -0.031815  -0.002679  -0.002147   0.000074   0.000767  -0.002147
    17  H   -0.020632  -0.003878   0.010021  -0.000433  -0.000279   0.010021
              13         14         15         16         17
     1  C   -0.003799   0.001153   0.331034  -0.031815  -0.020632
     2  H   -0.000157  -0.000325  -0.022544  -0.002679  -0.003878
     3  C    0.002981  -0.003213  -0.071619   0.009614  -0.001518
     4  H    0.000080  -0.000107   0.007170  -0.000307   0.000373
     5  C    0.005153   0.000443  -0.071619   0.009614  -0.001518
     6  H   -0.000318   0.002522   0.007170  -0.000307   0.000373
     7  C   -0.011659  -0.015013   0.331034  -0.031815  -0.020632
     8  H   -0.005404   0.000347  -0.022544  -0.002679  -0.003878
     9  C   -0.011426  -0.004604  -0.102719  -0.002147   0.010021
    10  H    0.005731  -0.014457   0.009797   0.000074  -0.000433
    11  H   -0.016418   0.005731  -0.000133   0.000767  -0.000279
    12  C    0.356245   0.349621  -0.102719  -0.002147   0.010021
    13  H    0.673733  -0.030008  -0.000133   0.000767  -0.000279
    14  H   -0.030008   0.665949   0.009797   0.000074  -0.000433
    15  C   -0.000133   0.009797   4.892623   0.383933   0.368834
    16  H    0.000767   0.000074   0.383933   0.664477  -0.028472
    17  H   -0.000279  -0.000433   0.368834  -0.028472   0.645954
 Mulliken charges:
               1
     1  C   -0.204193
     2  H    0.025678
     3  C   -0.014253
     4  H    0.021524
     5  C   -0.014253
     6  H    0.021524
     7  C   -0.204193
     8  H    0.025678
     9  C    0.037784
    10  H    0.032522
    11  H    0.034909
    12  C    0.037784
    13  H    0.034909
    14  H    0.032522
    15  C    0.052638
    16  H    0.033047
    17  H    0.046374
 Sum of Mulliken charges =   0.00000
 Mulliken charges with hydrogens summed into heavy atoms:
               1
     1  C   -0.178515
     3  C    0.007271
     5  C    0.007271
     7  C   -0.178515
     9  C    0.105214
    12  C    0.105214
    15  C    0.132059
 APT charges:
               1
     1  C    0.063663
     2  H   -0.024612
     3  C   -0.071328
     4  H    0.043277
     5  C   -0.071328
     6  H    0.043277
     7  C    0.063663
     8  H   -0.024612
     9  C    0.038018
    10  H   -0.023164
    11  H   -0.028283
    12  C    0.038018
    13  H   -0.028283
    14  H   -0.023164
    15  C    0.041143
    16  H   -0.017548
    17  H   -0.018737
 Sum of APT charges =   0.00000
 APT charges with hydrogens summed into heavy atoms:
               1
     1  C    0.039051
     3  C   -0.028050
     5  C   -0.028050
     7  C    0.039051
     9  C   -0.013430
    12  C   -0.013430
    15  C    0.004858
 Atomic Valencies and Mayer Atomic Bond Orders:
               1          2          3          4          5          6
     1  C    3.973711   0.958893   0.958951  -0.019312  -0.013760   0.012774
     2  H    0.958893   0.981607  -0.004203  -0.000092   0.008062   0.002241
     3  C    0.958951  -0.004203   3.792961   1.001303   1.833563  -0.019615
     4  H   -0.019312  -0.000092   1.001303   0.989775  -0.019615   0.001036
     5  C   -0.013760   0.008062   1.833563  -0.019615   3.792961   1.001303
     6  H    0.012774   0.002241  -0.019615   0.001036   1.001303   0.989775
     7  C    0.045710   0.005876  -0.013760   0.012774   0.958951  -0.019312
     8  H    0.005876   0.004720   0.008062   0.002241  -0.004203  -0.000092
     9  C    1.023374  -0.004839  -0.010932   0.000518   0.002503  -0.000046
    10  H    0.012435   0.000238   0.006058   0.001898   0.000545   0.000014
    11  H    0.009003  -0.000735   0.006919   0.000583   0.008902   0.000135
    12  C   -0.011403   0.009879   0.002503  -0.000046  -0.010932   0.000518
    13  H    0.001508   0.000496   0.008902   0.000135   0.006919   0.000583
    14  H    0.001638   0.001340   0.000545   0.000014   0.006058   0.001898
    15  C    0.986707   0.000641   0.000140   0.005548   0.000140   0.005548
    16  H   -0.000498  -0.000320   0.011021   0.002483   0.011021   0.002483
    17  H    0.001816  -0.000590   0.003503   0.000308   0.003503   0.000308
               7          8          9         10         11         12
     1  C    0.045710   0.005876   1.023374   0.012435   0.009003  -0.011403
     2  H    0.005876   0.004720  -0.004839   0.000238  -0.000735   0.009879
     3  C   -0.013760   0.008062  -0.010932   0.006058   0.006919   0.002503
     4  H    0.012774   0.002241   0.000518   0.001898   0.000583  -0.000046
     5  C    0.958951  -0.004203   0.002503   0.000545   0.008902  -0.010932
     6  H   -0.019312  -0.000092  -0.000046   0.000014   0.000135   0.000518
     7  C    3.973711   0.958893  -0.011403   0.001638   0.001508   1.023374
     8  H    0.958893   0.981607   0.009879   0.001340   0.000496  -0.004839
     9  C   -0.011403   0.009879   3.968220   0.937478   0.938299   1.078621
    10  H    0.001638   0.001340   0.937478   0.981881  -0.006295   0.012108
    11  H    0.001508   0.000496   0.938299  -0.006295   0.973992   0.009414
    12  C    1.023374  -0.004839   1.078621   0.012108   0.009414   3.968220
    13  H    0.009003  -0.000735   0.009414   0.003747  -0.002101   0.938299
    14  H    0.012435   0.000238   0.012108  -0.000846   0.003747   0.937478
    15  C    0.986707   0.000641  -0.028418   0.008165   0.002907  -0.028418
    16  H   -0.000498  -0.000320   0.001432   0.000477   0.000780   0.001432
    17  H    0.001816  -0.000590   0.010232   0.002882   0.000430   0.010232
              13         14         15         16         17
     1  C    0.001508   0.001638   0.986707  -0.000498   0.001816
     2  H    0.000496   0.001340   0.000641  -0.000320  -0.000590
     3  C    0.008902   0.000545   0.000140   0.011021   0.003503
     4  H    0.000135   0.000014   0.005548   0.002483   0.000308
     5  C    0.006919   0.006058   0.000140   0.011021   0.003503
     6  H    0.000583   0.001898   0.005548   0.002483   0.000308
     7  C    0.009003   0.012435   0.986707  -0.000498   0.001816
     8  H   -0.000735   0.000238   0.000641  -0.000320  -0.000590
     9  C    0.009414   0.012108  -0.028418   0.001432   0.010232
    10  H    0.003747  -0.000846   0.008165   0.000477   0.002882
    11  H   -0.002101   0.003747   0.002907   0.000780   0.000430
    12  C    0.938299   0.937478  -0.028418   0.001432   0.010232
    13  H    0.973992  -0.006295   0.002907   0.000780   0.000430
    14  H   -0.006295   0.981881   0.008165   0.000477   0.002882
    15  C    0.002907   0.008165   3.858808   0.955959   0.951469
    16  H    0.000780   0.000477   0.955959   0.980330  -0.006380
    17  H    0.000430   0.002882   0.951469  -0.006380   0.982251
 Lowdin Atomic Charges:
               1
     1  C   -0.042006
     2  H    0.021553
     3  C   -0.034609
     4  H    0.024586
     5  C   -0.034609
     6  H    0.024586
     7  C   -0.042006
     8  H    0.021553
     9  C   -0.033558
    10  H    0.025155
    11  H    0.025964
    12  C   -0.033558
    13  H    0.025964
    14  H    0.025155
    15  C   -0.021160
    16  H    0.020345
    17  H    0.026646
 Sum of Lowdin charges  =   0.00000
 Lowdin atomic charges with hydrogens summed into heavy atoms:
               1
     1  C   -0.020453
     2  H    0.000000
     3  C   -0.010023
     4  H    0.000000
     5  C   -0.010023
     6  H    0.000000
     7  C   -0.020453
     8  H    0.000000
     9  C    0.017560
    10  H    0.000000
    11  H    0.000000
    12  C    0.017560
    13  H    0.000000
    14  H    0.000000
    15  C    0.025831
    16  H    0.000000
    17  H    0.000000
 Sum of Lowdin charges  =   0.00000
 Dipole moment from Lowdin charges (Debye):
    X=    -0.2254    Y=    -0.2896    Z=     0.0000  Tot=     0.3670
 Electronic spatial extent (au):  <R**2>=            586.9701
 Charge=              0.0000 electrons
 Dipole moment (field-independent basis, Debye):
    X=             -0.1274    Y=             -0.2966    Z=              0.0000  Tot=              0.3228
 Quadrupole moment (field-independent basis, Debye-Ang):
   XX=            -42.4410   YY=            -45.0595   ZZ=            -42.2193
   XY=              0.3537   XZ=              0.0000   YZ=              0.0000
 Traceless Quadrupole moment (field-independent basis, Debye-Ang):
   XX=              0.7989   YY=             -1.8195   ZZ=              1.0206
   XY=              0.3537   XZ=              0.0000   YZ=              0.0000
 Octapole moment (field-independent basis, Debye-Ang**2):
  XXX=              1.1791  YYY=             -2.4911  ZZZ=              0.0000  XYY=             -1.0367
  XXY=              0.1499  XXZ=              0.0000  XZZ=              1.6724  YZZ=              1.3229
  YYZ=              0.0000  XYZ=              0.0000
 Hexadecapole moment (field-independent basis, Debye-Ang**3):
 XXXX=           -241.5521 YYYY=           -302.4945 ZZZZ=           -264.3977 XXXY=            -17.3184
 XXXZ=              0.0000 YYYX=            -30.1353 YYYZ=              0.0000 ZZZX=              0.0000
 ZZZY=              0.0000 XXYY=            -87.9564 XXZZ=            -80.8338 YYZZ=            -94.5576
 XXYZ=              0.0000 YYXZ=              0.0000 ZZXY=             -6.2737
 N-N= 3.085251736586D+02 E-N=-1.246172244881D+03  KE= 2.690356254068D+02
 Symmetry A'   KE= 1.560420931219D+02
 Symmetry A"   KE= 1.129935322849D+02
  Exact polarizability:  66.512   3.970  63.764   0.000   0.000  72.567
 Approx polarizability:  91.952   4.872  86.679   0.000   0.000 110.691
 No NMR shielding tensors so no spin-rotation constants.
 Leave Link  601 at Tue Jun  9 16:12:08 2015, MaxMem=   536870912 cpu:         0.9
 (Enter /usr/local/research/Gaussian09/g09-revD.01/g09/l701.exe)
 Compute integral second derivatives.
 ... and contract with generalized density number  0.
 R6Disp: Adding Grimme-D3(BJ) dispersion energy 2nd derivatives to the Hessian.
 Entering OneElI...
 Calculate overlap and kinetic energy integrals
    NBasis = 155  MinDer = 2  MaxDer = 2
 Requested accuracy = 0.1000D-12
 PrsmSu:  NPrtUS=   4 ThrOK=T IAlg=1 NPAlg=1 LenDen=           0.
 Prism:   IPart=     0 DynPar=F LinDyn=F Incr=           6.
 PRISM was handed   134110090 working-precision words and  2628 shell-pairs
 PRISM was handed   134110090 working-precision words and  2628 shell-pairs
 PRISM was handed   134110090 working-precision words and  2628 shell-pairs
 PRISM was handed   134110090 working-precision words and  2628 shell-pairs
 IPart=  3 NShTot=         645 NBatch=          49 AvBLen=        13.2
 IPart=  2 NShTot=         652 NBatch=          49 AvBLen=        13.3
 IPart=  1 NShTot=         662 NBatch=          50 AvBLen=        13.2
 IPart=  0 NShTot=         669 NBatch=          51 AvBLen=        13.1
 PrSmSu:  NxtVal=             25.
 Entering OneElI...
 Calculate potential energy integrals
    NBasis = 155  MinDer = 2  MaxDer = 2
 Requested accuracy = 0.1000D-12
 PrsmSu:  NPrtUS=   4 ThrOK=T IAlg=1 NPAlg=1 LenDen=           0.
 Prism:   IPart=     0 DynPar=F LinDyn=F Incr=         110.
 PRISM was handed   134123309 working-precision words and  2609 shell-pairs
 PRISM was handed   134123309 working-precision words and  2609 shell-pairs
 PRISM was handed   134123309 working-precision words and  2609 shell-pairs
 PRISM was handed   134123309 working-precision words and  2609 shell-pairs
 IPart=  3 NShTot=       10863 NBatch=         639 AvBLen=        17.0
 IPart=  2 NShTot=       10965 NBatch=         645 AvBLen=        17.0
 IPart=  1 NShTot=       11220 NBatch=         660 AvBLen=        17.0
 IPart=  0 NShTot=       11305 NBatch=         665 AvBLen=        17.0
 PrSmSu:  NxtVal=            441.
   2 Symmetry operations used in ECPInt.
 ECPInt:  NShTT=    2628 NPrTT=    9166 LenC2=    2629 LenP2D=    7889.
 LDataN:  DoStor=F MaxTD1= 6 Len=  172
 LDataN:  DoStor=T MaxTD1= 6 Len=  172
 ECPSu:  NPrtUS=   4 ThrOK=T
 Polarizability after L701:
                1             2             3 
      1  0.665117D+02
      2  0.396976D+01  0.637642D+02
      3  0.000000D+00  0.000000D+00  0.725669D+02
 Dipole Derivatives after L701:
                 1             2             3             4             5 
      1  -0.164939D-01 -0.563495D-01 -0.743910D-01  0.334855D-01  0.532420D-02
      2  -0.899499D-02  0.520546D-01  0.946144D-02  0.218012D-02  0.276995D-01
      3  -0.715018D-01  0.915711D-01  0.155428D+00  0.520896D-01 -0.426222D-01
                 6             7             8             9            10 
      1   0.458873D-01  0.329286D-01  0.948603D-01 -0.279851D-01 -0.333433D-01
      2  -0.353517D-01  0.971950D-01 -0.211605D+00 -0.708296D-01 -0.633493D-01
      3  -0.135022D+00  0.422569D-01 -0.114001D+00 -0.353071D-01 -0.709850D-01
                11            12            13            14            15 
      1  -0.353323D-01 -0.610742D-01  0.329286D-01  0.948603D-01  0.279851D-01
      2   0.135429D+00 -0.117713D-01  0.971950D-01 -0.211605D+00  0.708296D-01
      3   0.483366D-02  0.277460D-01 -0.422569D-01  0.114001D+00 -0.353070D-01
                16            17            18            19            20 
      1  -0.333433D-01 -0.353323D-01  0.610743D-01 -0.164939D-01 -0.563495D-01
      2  -0.633493D-01  0.135429D+00  0.117713D-01 -0.899500D-02  0.520546D-01
      3   0.709850D-01 -0.483364D-02  0.277460D-01  0.715018D-01 -0.915711D-01
                21            22            23            24            25 
      1   0.743910D-01  0.334855D-01  0.532420D-02 -0.458874D-01  0.836711D-01
      2  -0.946145D-02  0.218012D-02  0.276995D-01  0.353517D-01 -0.114044D-01
      3   0.155428D+00 -0.520896D-01  0.426222D-01 -0.135022D+00  0.552932D-01
                26            27            28            29            30 
      1   0.982808D-02  0.348921D-01 -0.476351D-01  0.538856D-01 -0.346649D-01
      2   0.492475D-01  0.115609D-01  0.927635D-01 -0.138448D-01  0.336356D-01
      3  -0.199426D-01 -0.188649D-01 -0.800413D-01  0.298848D-01 -0.801229D-02
                31            32            33            34            35 
      1  -0.721126D-01 -0.745945D-01  0.277942D-01  0.836711D-01  0.982808D-02
      2  -0.984704D-01 -0.236350D-01  0.248037D-01 -0.114044D-01  0.492475D-01
      3   0.844405D-01  0.630871D-01  0.108974D-01 -0.552932D-01  0.199426D-01
                36            37            38            39            40 
      1  -0.348921D-01 -0.721126D-01 -0.745945D-01 -0.277942D-01 -0.476351D-01
      2  -0.115609D-01 -0.984704D-01 -0.236350D-01 -0.248037D-01  0.927635D-01
      3  -0.188649D-01 -0.844405D-01 -0.630871D-01  0.108974D-01  0.800413D-01
                41            42            43            44            45 
      1   0.538856D-01  0.346649D-01  0.139999D+00  0.528633D-01  0.000000D+00
      2  -0.138448D-01 -0.336356D-01  0.271735D-01  0.846682D-01  0.000000D+00
      3  -0.298848D-01 -0.801229D-02  0.000000D+00  0.000000D+00 -0.101238D+00
                46            47            48            49            50 
      1  -0.144793D+00 -0.104209D+00  0.000000D+00  0.437934D-01  0.561023D-01
      2  -0.419217D-01  0.266231D-01  0.000000D+00 -0.509079D-02 -0.141984D+00
      3   0.000000D+00  0.000000D+00  0.655271D-01  0.000000D+00  0.000000D+00
                51 
      1   0.000000D+00
      2   0.000000D+00
      3   0.419794D-01
 Hessian after L701:
                1             2             3             4             5 
      1  0.157036D+02
      2 -0.176504D+00  0.153321D+02
      3  0.285676D+00  0.378171D+00  0.163492D+02
      4 -0.425610D+01 -0.133422D+00 -0.616758D+00  0.427563D+01
      5 -0.139138D+00 -0.432208D+01  0.503084D+00  0.210783D+00  0.435085D+01
      6 -0.632089D+00  0.488242D+00 -0.217229D+01  0.772304D+00 -0.645096D+00
      7 -0.148516D+01  0.153450D+01 -0.164667D+01 -0.910866D-02 -0.415667D-01
      8  0.157617D+01 -0.524856D+01 -0.760276D+00 -0.415539D-01  0.834626D-01
      9 -0.135157D+01 -0.629864D+00 -0.567655D+01  0.148900D+00  0.594430D-01
     10 -0.291802D+00 -0.127842D+00 -0.742030D-01 -0.311392D-01 -0.124043D-01
     11 -0.142172D+00  0.127243D+00 -0.288713D-01 -0.890930D-02  0.622016D-02
     12 -0.108271D+00 -0.384861D-01  0.189169D+00  0.189847D-01  0.155909D-02
     13  0.255669D+00 -0.161871D+00 -0.107576D+00  0.278761D-01  0.172286D-02
     14 -0.185267D+00 -0.535763D-01  0.200655D+00  0.881334D-02 -0.723524D-01
     15 -0.314605D+00  0.674049D-01  0.201335D+00 -0.174695D+00 -0.973533D-03
     16  0.934088D-01  0.434194D-01 -0.205657D+00  0.300626D-02 -0.192645D-02
     17  0.514687D-01 -0.536963D-01 -0.638323D-01  0.138533D-03 -0.159901D-02
     18 -0.188474D+00 -0.523610D-01  0.149694D+00 -0.679807D-03  0.265880D-02
     19  0.921434D-01  0.972156D-01 -0.491176D-01 -0.552903D-01  0.242442D-02
     20  0.972156D-01  0.120722D+00  0.247932D-01  0.375559D-02 -0.534465D-01
     21  0.491176D-01 -0.247932D-01 -0.288132D+00 -0.138196D-01  0.151785D-01
     22 -0.552903D-01  0.375559D-02  0.138196D-01  0.530485D-04  0.771296D-04
     23  0.242442D-02 -0.534465D-01 -0.151785D-01  0.771296D-04 -0.246666D-04
     24  0.391932D-02  0.594398D-03  0.178197D+00 -0.384512D-02  0.308861D-02
     25 -0.607621D+01  0.711656D-01  0.451501D-01  0.745222D-01  0.147475D-01
     26  0.436891D-01 -0.687693D+00  0.146799D+01  0.104044D-01 -0.282593D-01
     27  0.200367D-01  0.120139D+01 -0.587446D+01  0.309375D-02 -0.124628D+00
     28  0.406234D-01 -0.992597D-01  0.391951D-01  0.397663D-02 -0.162388D-01
     29 -0.727994D-02  0.369227D-01 -0.401290D-01 -0.129341D-01  0.132440D-01
     30  0.365951D-01 -0.592323D-01  0.105153D-01 -0.100313D-02  0.298198D-02
     31  0.443427D-01  0.121157D+00 -0.390627D-01  0.683755D-02 -0.740326D-02
     32  0.308136D-01  0.680903D-01 -0.420644D-01 -0.153558D-01 -0.351284D-01
     33 -0.380865D-01 -0.601299D-01 -0.561986D-02 -0.531616D-02 -0.207971D-01
     34  0.125589D+00 -0.480242D-02  0.240071D-01 -0.617852D-01 -0.165192D-01
     35  0.181532D-01  0.278351D-01 -0.227951D+00 -0.234566D-01  0.260297D-01
     36  0.514539D-01  0.516511D-02 -0.749183D-01 -0.414579D-01  0.153538D+00
     37  0.107860D-02  0.121646D-01  0.116931D-01 -0.314770D-02  0.386863D-02
     38  0.297892D-02 -0.360183D-01 -0.133769D-01 -0.111312D-02  0.108195D-02
     39  0.828683D-02 -0.751753D-02 -0.339825D-02 -0.150743D-02  0.170483D-02
     40 -0.851821D-02 -0.440292D-01 -0.445933D-01  0.198483D-02 -0.291308D-02
     41 -0.301719D-01  0.755185D-02  0.495177D-01 -0.141311D-02 -0.196782D-04
     42 -0.336382D-01  0.516191D-01  0.294126D-01 -0.969249D-03 -0.125147D-02
     43 -0.421747D+01 -0.112726D+01  0.245500D+01  0.248947D-01 -0.520668D-02
     44 -0.112554D+01 -0.540276D+01 -0.145025D+01 -0.446272D-02  0.315338D-01
     45  0.227295D+01 -0.133073D+01 -0.304590D+01 -0.628844D-01  0.322691D-01
     46  0.487705D-02 -0.263705D-01 -0.748589D-01 -0.651051D-02  0.290941D-02
     47  0.397914D-01  0.721847D-01  0.561949D-02  0.525453D-05  0.499629D-02
     48 -0.697020D-01 -0.261757D-01  0.333085D-01 -0.119304D-01 -0.545382D-03
     49  0.292364D-01  0.179894D-01 -0.160451D-01  0.430012D-02  0.678374D-02
     50 -0.566266D-01  0.652162D-01  0.120937D-01  0.864335D-02 -0.450788D-02
     51  0.839581D-02  0.367004D-01  0.453611D-03 -0.841695D-02  0.177853D-01
                6             7             8             9            10 
      6  0.159553D+01
      7  0.151649D+00  0.137691D+02
      8  0.712720D-01 -0.325949D+01  0.213207D+02
      9 -0.698994D-01 -0.524775D+00  0.342773D+00  0.948563D+01
     10  0.288714D-02 -0.251078D+01  0.464323D+00  0.141096D+01  0.237034D+01
     11  0.592630D-03  0.512044D+00 -0.418887D+01  0.408377D+00 -0.523105D+00
     12 -0.329067D-02  0.142635D+01  0.373475D+00 -0.328387D+01 -0.151189D+01
     13 -0.185597D+00 -0.102379D+02  0.995161D+00 -0.263357D+00  0.963638D-01
     14 -0.174217D-01  0.995161D+00 -0.128218D+02 -0.167186D+00 -0.524302D-02
     15  0.239234D+00  0.263357D+00  0.167186D+00 -0.466653D+00 -0.196476D+00
     16 -0.101563D-01  0.963638D-01 -0.524302D-02  0.196476D+00  0.102064D-01
     17 -0.279013D-02 -0.207068D-01  0.175676D+00  0.539976D-01 -0.240044D-03
     18  0.706260D-02  0.193347D+00  0.290023D-01 -0.143575D+00  0.507136D-02
     19 -0.391932D-02  0.255669D+00 -0.185267D+00  0.314605D+00  0.934088D-01
     20 -0.594398D-03 -0.161871D+00 -0.535763D-01 -0.674049D-01  0.434194D-01
     21  0.178197D+00  0.107576D+00 -0.200655D+00  0.201335D+00  0.205657D+00
     22  0.384512D-02  0.278761D-01  0.881334D-02  0.174695D+00  0.300626D-02
     23 -0.308861D-02  0.172286D-02 -0.723524D-01  0.973533D-03 -0.192645D-02
     24  0.586542D-02  0.185597D+00  0.174217D-01  0.239234D+00  0.101563D-01
     25  0.281083D-02 -0.500245D-01  0.245413D+00 -0.766423D-02  0.508768D-01
     26 -0.117443D+00  0.180607D+00  0.459331D+00 -0.110240D+00  0.708066D-01
     27 -0.170139D-02  0.598582D-01 -0.149173D-01 -0.110453D+00  0.251876D-01
     28 -0.201170D-01 -0.263616D-01 -0.851567D-02 -0.409954D-02 -0.101371D-01
     29  0.203685D-01  0.310736D-01  0.293266D-01 -0.696835D-01  0.380499D-01
     30 -0.791768D-02 -0.191905D-01 -0.732767D-01 -0.123986D-01 -0.512828D-02
     31  0.699542D-02  0.509275D-01  0.103883D+00 -0.630871D-02  0.865655D-02
     32 -0.157308D-01  0.982568D-01  0.587940D-01 -0.553846D-02  0.413848D-02
     33  0.698973D-03 -0.159327D-01 -0.209009D-01 -0.437553D-01 -0.335151D-02
     34 -0.309708D-01 -0.804734D-01 -0.753902D-02 -0.880583D-01  0.917140D-02
     35  0.170229D+00 -0.123753D+00  0.111841D+00 -0.179328D-01  0.143551D-01
     36  0.199477D+00 -0.196113D+00 -0.268559D-01 -0.117101D+00  0.187817D-01
     37  0.107638D-01  0.334466D-01  0.579013D-01  0.556122D-01  0.101419D-01
     38  0.757121D-02  0.536781D-01  0.225780D-01  0.456019D-01  0.743488D-02
     39  0.653682D-02  0.427842D-01  0.402190D-01  0.714230D-02  0.656847D-02
     40 -0.905933D-02 -0.109038D-01 -0.219965D-01 -0.187350D-01 -0.781181D-02
     41  0.438026D-02 -0.152009D-01 -0.213245D-01  0.235875D-01  0.782424D-02
     42  0.287178D-02 -0.672962D-02  0.111261D-01  0.178752D-01  0.667206D-02
     43 -0.530924D-01 -0.644082D-01  0.236676D-01 -0.132567D+00  0.177055D+00
     44  0.301699D-01  0.197416D+00  0.200448D+00  0.125479D+00  0.358287D-01
     45  0.447496D-01 -0.807083D-01  0.217812D-01  0.630840D-01  0.924270D-01
     46  0.443974D-02  0.228315D+00  0.632732D-01  0.924414D-01  0.610426D-02
     47  0.781385D-02  0.600249D-01 -0.509290D-01  0.204915D-01  0.483296D-02
     48 -0.795112D-02  0.639962D-01  0.171293D-01 -0.502158D-01 -0.152691D-02
     49 -0.106948D-01  0.134162D-01 -0.900243D-02  0.344323D-02  0.163355D-01
     50  0.152589D-02 -0.418991D-01 -0.476327D-02 -0.128725D-01 -0.202528D-01
     51 -0.171723D-01 -0.440095D-02  0.549661D-02 -0.398291D-01  0.820936D-02
               11            12            13            14            15 
     11  0.391014D+01
     12 -0.441418D+00  0.319412D+01
     13 -0.207068D-01 -0.193347D+00  0.137691D+02
     14  0.175676D+00 -0.290023D-01 -0.325949D+01  0.213207D+02
     15 -0.539976D-01 -0.143575D+00  0.524775D+00 -0.342773D+00  0.948563D+01
     16 -0.240044D-03 -0.507136D-02 -0.251078D+01  0.464323D+00 -0.141096D+01
     17  0.116839D-01 -0.998150D-03  0.512044D+00 -0.418887D+01 -0.408377D+00
     18  0.998150D-03 -0.693403D-01 -0.142635D+01 -0.373475D+00 -0.328387D+01
     19  0.514687D-01  0.188474D+00 -0.148516D+01  0.157617D+01  0.135157D+01
     20 -0.536963D-01  0.523610D-01  0.153450D+01 -0.524856D+01  0.629864D+00
     21  0.638323D-01  0.149694D+00  0.164667D+01  0.760276D+00 -0.567655D+01
     22  0.138533D-03  0.679807D-03 -0.910866D-02 -0.415539D-01 -0.148900D+00
     23 -0.159901D-02 -0.265880D-02 -0.415667D-01  0.834626D-01 -0.594430D-01
     24  0.279013D-02  0.706260D-02 -0.151649D+00 -0.712720D-01 -0.698994D-01
     25  0.660479D-01  0.357815D-01 -0.804734D-01 -0.753902D-02  0.880583D-01
     26  0.197810D-01  0.268807D-01 -0.123753D+00  0.111841D+00  0.179328D-01
     27  0.169179D-01 -0.207476D-01  0.196113D+00  0.268559D-01 -0.117101D+00
     28  0.135501D-01 -0.302307D-02 -0.109038D-01 -0.219965D-01  0.187350D-01
     29  0.421388D-01  0.133590D-01 -0.152009D-01 -0.213245D-01 -0.235875D-01
     30 -0.354964D-02 -0.160512D-01  0.672962D-02 -0.111261D-01  0.178752D-01
     31  0.360489D-02  0.665323D-02  0.334466D-01  0.579013D-01 -0.556122D-01
     32 -0.100602D-03  0.412353D-02  0.536781D-01  0.225780D-01 -0.456019D-01
     33 -0.131968D-02 -0.278964D-02 -0.427842D-01 -0.402190D-01  0.714230D-02
     34  0.182033D-01  0.201405D-01 -0.500245D-01  0.245413D+00  0.766423D-02
     35 -0.159434D-02  0.143208D-01  0.180607D+00  0.459331D+00  0.110240D+00
     36  0.155777D-01  0.364530D-02 -0.598582D-01  0.149173D-01 -0.110453D+00
     37  0.612613D-02  0.904394D-02  0.509275D-01  0.103883D+00  0.630871D-02
     38  0.330455D-02  0.575414D-02  0.982568D-01  0.587940D-01  0.553846D-02
     39  0.350650D-02  0.370114D-02  0.159327D-01  0.209009D-01 -0.437553D-01
     40 -0.301193D-02 -0.527615D-02 -0.263616D-01 -0.851567D-02  0.409954D-02
     41  0.338073D-02  0.783902D-02  0.310736D-01  0.293266D-01  0.696835D-01
     42  0.467726D-02  0.511305D-02  0.191905D-01  0.732767D-01 -0.123986D-01
     43  0.274563D-01  0.103242D+00 -0.644082D-01  0.236676D-01  0.132567D+00
     44 -0.493805D-01  0.225849D-01  0.197416D+00  0.200448D+00 -0.125479D+00
     45  0.135808D-01 -0.130764D-01  0.807083D-01 -0.217812D-01  0.630840D-01
     46  0.260069D-02  0.689371D-02  0.228315D+00  0.632732D-01 -0.924414D-01
     47  0.397347D-03  0.260095D-02  0.600249D-01 -0.509290D-01 -0.204915D-01
     48 -0.296482D-03  0.383820D-03 -0.639962D-01 -0.171293D-01 -0.502158D-01
     49 -0.309501D-02  0.106339D-01  0.134162D-01 -0.900243D-02 -0.344323D-02
     50 -0.472666D-02 -0.122948D-01 -0.418991D-01 -0.476327D-02  0.128725D-01
     51 -0.139775D-02 -0.150207D-03  0.440095D-02 -0.549661D-02 -0.398291D-01
               16            17            18            19            20 
     16  0.237034D+01
     17 -0.523105D+00  0.391014D+01
     18  0.151189D+01  0.441418D+00  0.319412D+01
     19 -0.291802D+00 -0.142172D+00  0.108271D+00  0.157036D+02
     20 -0.127842D+00  0.127243D+00  0.384861D-01 -0.176504D+00  0.153321D+02
     21  0.742030D-01  0.288713D-01  0.189169D+00 -0.285676D+00 -0.378171D+00
     22 -0.311392D-01 -0.890930D-02 -0.189847D-01 -0.425610D+01 -0.133422D+00
     23 -0.124043D-01  0.622016D-02 -0.155909D-02 -0.139138D+00 -0.432208D+01
     24 -0.288714D-02 -0.592630D-03 -0.329067D-02  0.632089D+00 -0.488242D+00
     25  0.917140D-02  0.182033D-01 -0.201405D-01  0.125589D+00 -0.480242D-02
     26  0.143551D-01 -0.159434D-02 -0.143208D-01  0.181532D-01  0.278351D-01
     27 -0.187817D-01 -0.155777D-01  0.364530D-02 -0.514539D-01 -0.516511D-02
     28 -0.781181D-02 -0.301193D-02  0.527615D-02 -0.851821D-02 -0.440292D-01
     29  0.782424D-02  0.338073D-02 -0.783902D-02 -0.301719D-01  0.755185D-02
     30 -0.667206D-02 -0.467726D-02  0.511305D-02  0.336382D-01 -0.516191D-01
     31  0.101419D-01  0.612613D-02 -0.904394D-02  0.107860D-02  0.121646D-01
     32  0.743488D-02  0.330455D-02 -0.575414D-02  0.297892D-02 -0.360183D-01
     33 -0.656847D-02 -0.350650D-02  0.370114D-02 -0.828683D-02  0.751753D-02
     34  0.508768D-01  0.660479D-01 -0.357815D-01 -0.607621D+01  0.711656D-01
     35  0.708066D-01  0.197810D-01 -0.268807D-01  0.436891D-01 -0.687693D+00
     36 -0.251876D-01 -0.169179D-01 -0.207476D-01 -0.200367D-01 -0.120139D+01
     37  0.865655D-02  0.360489D-02 -0.665323D-02  0.443427D-01  0.121157D+00
     38  0.413848D-02 -0.100602D-03 -0.412353D-02  0.308136D-01  0.680903D-01
     39  0.335151D-02  0.131968D-02 -0.278964D-02  0.380865D-01  0.601299D-01
     40 -0.101371D-01  0.135501D-01  0.302307D-02  0.406234D-01 -0.992597D-01
     41  0.380499D-01  0.421388D-01 -0.133590D-01 -0.727994D-02  0.369227D-01
     42  0.512828D-02  0.354964D-02 -0.160512D-01 -0.365951D-01  0.592323D-01
     43  0.177055D+00  0.274563D-01 -0.103242D+00 -0.421747D+01 -0.112726D+01
     44  0.358287D-01 -0.493805D-01 -0.225849D-01 -0.112554D+01 -0.540276D+01
     45 -0.924270D-01 -0.135808D-01 -0.130764D-01 -0.227295D+01  0.133073D+01
     46  0.610426D-02  0.260069D-02 -0.689371D-02  0.487705D-02 -0.263705D-01
     47  0.483296D-02  0.397347D-03 -0.260095D-02  0.397914D-01  0.721847D-01
     48  0.152691D-02  0.296483D-03  0.383820D-03  0.697020D-01  0.261757D-01
     49  0.163355D-01 -0.309501D-02 -0.106339D-01  0.292364D-01  0.179894D-01
     50 -0.202528D-01 -0.472666D-02  0.122948D-01 -0.566266D-01  0.652162D-01
     51 -0.820936D-02  0.139775D-02 -0.150207D-03 -0.839581D-02 -0.367004D-01
               21            22            23            24            25 
     21  0.163492D+02
     22  0.616758D+00  0.427563D+01
     23 -0.503084D+00  0.210783D+00  0.435085D+01
     24 -0.217229D+01 -0.772304D+00  0.645096D+00  0.159553D+01
     25 -0.240071D-01 -0.617852D-01 -0.165192D-01  0.309708D-01  0.173162D+02
     26  0.227951D+00 -0.234566D-01  0.260297D-01 -0.170229D+00 -0.262471D+00
     27 -0.749183D-01  0.414579D-01 -0.153538D+00  0.199477D+00 -0.129089D+00
     28  0.445933D-01  0.198483D-02 -0.291308D-02  0.905933D-02 -0.278312D+01
     29 -0.495177D-01 -0.141311D-02 -0.196782D-04 -0.438026D-02 -0.904126D+00
     30  0.294126D-01  0.969249D-03  0.125147D-02  0.287178D-02  0.758668D+00
     31 -0.116931D-01 -0.314770D-02  0.386863D-02 -0.107638D-01 -0.266771D+01
     32  0.133769D-01 -0.111312D-02  0.108195D-02 -0.757121D-02  0.855219D+00
     33 -0.339825D-02  0.150743D-02 -0.170483D-02  0.653682D-02 -0.730085D+00
     34 -0.451501D-01  0.745222D-01  0.147475D-01 -0.281083D-02 -0.613742D+01
     35 -0.146799D+01  0.104044D-01 -0.282593D-01  0.117443D+00  0.211104D-02
     36 -0.587446D+01 -0.309375D-02  0.124628D+00 -0.170139D-02 -0.104315D-01
     37  0.390627D-01  0.683755D-02 -0.740326D-02 -0.699542D-02  0.454929D-01
     38  0.420644D-01 -0.153558D-01 -0.351284D-01  0.157308D-01  0.501425D-01
     39 -0.561986D-02  0.531616D-02  0.207971D-01  0.698973D-03  0.266361D-01
     40 -0.391951D-01  0.397663D-02 -0.162388D-01  0.201170D-01  0.261127D-01
     41  0.401290D-01 -0.129341D-01  0.132440D-01 -0.203685D-01 -0.573812D-01
     42  0.105153D-01  0.100313D-02 -0.298198D-02 -0.791768D-02 -0.439858D-01
     43 -0.245500D+01  0.248947D-01 -0.520668D-02  0.530924D-01  0.205975D+00
     44  0.145025D+01 -0.446272D-02  0.315338D-01 -0.301699D-01  0.386935D-01
     45 -0.304590D+01  0.628844D-01 -0.322691D-01  0.447496D-01 -0.474790D-01
     46  0.748589D-01 -0.651051D-02  0.290941D-02 -0.443974D-02  0.429242D-01
     47 -0.561949D-02  0.525459D-05  0.499629D-02 -0.781385D-02 -0.199271D-01
     48  0.333085D-01  0.119304D-01  0.545382D-03 -0.795112D-02  0.786887D-02
     49  0.160451D-01  0.430012D-02  0.678374D-02  0.106948D-01 -0.400778D-01
     50 -0.120937D-01  0.864335D-02 -0.450788D-02 -0.152589D-02 -0.889769D-01
     51  0.453611D-03  0.841695D-02 -0.177853D-01 -0.171723D-01  0.169382D-01
               26            27            28            29            30 
     26  0.133851D+02
     27 -0.606528D+00  0.131855D+02
     28 -0.706819D+00  0.633250D+00  0.276260D+01
     29 -0.382920D+01 -0.370938D+00  0.110028D+01  0.346959D+01
     30 -0.345271D+00 -0.391568D+01 -0.980348D+00  0.717819D+00  0.387810D+01
     31  0.693957D+00 -0.625798D+00 -0.109646D+00  0.153093D-02  0.204122D-02
     32 -0.382640D+01 -0.332506D+00  0.874590D-02  0.100440D+00 -0.906460D-02
     33 -0.311546D+00 -0.389996D+01 -0.101047D-01 -0.877539D-02  0.945824D-01
     34  0.211104D-02  0.104315D-01  0.261127D-01 -0.573812D-01  0.439858D-01
     35 -0.590401D+01  0.146195D+00 -0.820354D-01  0.970959D-02 -0.788418D-01
     36 -0.146195D+00  0.412855D+00  0.134606D+00 -0.985927D-01  0.393348D-01
     37  0.769411D-01  0.113388D+00  0.377041D-01 -0.119469D-01  0.712306D-01
     38  0.265897D-01  0.774330D-01  0.912398D-02 -0.283235D-01  0.100398D-01
     39  0.679900D-01  0.213600D-01  0.693802D-01 -0.124418D-01  0.580540D-01
     40 -0.820354D-01 -0.134606D+00  0.380103D-01  0.344776D-02 -0.213432D-02
     41  0.970959D-02  0.985927D-01  0.344776D-02  0.455856D-01 -0.965493D-02
     42  0.788418D-01  0.393348D-01  0.213432D-02  0.965493D-02 -0.146988D+00
     43  0.228260D+00 -0.180407D+00  0.285622D-01 -0.132372D+00  0.524393D-01
     44  0.160715D-02  0.140002D+00 -0.140536D+00  0.121627D+00 -0.818522D-01
     45  0.101794D-01  0.238127D+00  0.574430D-01 -0.758605D-01 -0.354550D-01
     46 -0.518957D-01  0.103002D-01  0.170888D-01 -0.133566D-01  0.881018D-02
     47 -0.160327D-01  0.115102D-02 -0.266531D-02 -0.770309D-03 -0.123838D-02
     48 -0.671253D-02 -0.372716D-01  0.420066D-02 -0.296942D-02 -0.150934D-02
     49 -0.888552D-01  0.270169D-01 -0.165683D-03  0.397790D-02 -0.630494D-03
     50  0.225395D+00 -0.847428D-01 -0.712591D-02  0.119222D-03 -0.268850D-02
     51 -0.692828D-01 -0.479703D-01 -0.180657D-03  0.351290D-02  0.138378D-03
               31            32            33            34            35 
     31  0.253853D+01
     32 -0.111466D+01  0.352310D+01
     33  0.958331D+00  0.638157D+00  0.388794D+01
     34  0.454929D-01  0.501425D-01 -0.266361D-01  0.173162D+02
     35  0.769411D-01  0.265897D-01 -0.679900D-01 -0.262471D+00  0.133851D+02
     36 -0.113388D+00 -0.774330D-01  0.213600D-01  0.129089D+00  0.606528D+00
     37  0.442436D-01 -0.242809D-02 -0.985552D-03 -0.266771D+01  0.693957D+00
     38 -0.242809D-02  0.521254D-01 -0.105370D-01  0.855219D+00 -0.382640D+01
     39  0.985552D-03  0.105370D-01 -0.158409D+00  0.730085D+00  0.311546D+00
     40  0.377041D-01  0.912398D-02 -0.693802D-01 -0.278312D+01 -0.706819D+00
     41 -0.119469D-01 -0.283235D-01  0.124418D-01 -0.904126D+00 -0.382920D+01
     42 -0.712306D-01 -0.100398D-01  0.580540D-01 -0.758668D+00  0.345271D+00
     43 -0.238674D-01  0.352428D-01 -0.169177D-01  0.205975D+00  0.228260D+00
     44  0.482221D-01  0.545824D-01 -0.956289D-01  0.386935D-01  0.160715D-02
     45 -0.319898D-01 -0.102505D+00  0.371093D-01  0.474790D-01 -0.101794D-01
     46 -0.154179D-01 -0.225312D-01  0.146909D-01  0.429242D-01 -0.518957D-01
     47 -0.379262D-02  0.643022D-02 -0.909021D-02 -0.199271D-01 -0.160327D-01
     48  0.100015D-02 -0.112301D-01 -0.222456D-02 -0.786887D-02  0.671253D-02
     49 -0.161509D-02  0.310285D-03 -0.935127D-04 -0.400778D-01 -0.888552D-01
     50  0.108709D-01  0.886026D-02 -0.597082D-02 -0.889769D-01  0.225395D+00
     51 -0.111630D-02 -0.115446D-02 -0.977693D-03 -0.169382D-01  0.692828D-01
               36            37            38            39            40 
     36  0.131855D+02
     37  0.625798D+00  0.253853D+01
     38  0.332506D+00 -0.111466D+01  0.352310D+01
     39 -0.389996D+01 -0.958331D+00 -0.638157D+00  0.388794D+01
     40 -0.633250D+00 -0.109646D+00  0.874590D-02  0.101047D-01  0.276260D+01
     41  0.370938D+00  0.153093D-02  0.100440D+00  0.877539D-02  0.110028D+01
     42 -0.391568D+01 -0.204122D-02  0.906460D-02  0.945824D-01  0.980348D+00
     43  0.180407D+00 -0.238674D-01  0.352428D-01  0.169177D-01  0.285622D-01
     44 -0.140002D+00  0.482221D-01  0.545824D-01  0.956289D-01 -0.140536D+00
     45  0.238127D+00  0.319898D-01  0.102505D+00  0.371093D-01 -0.574430D-01
     46 -0.103002D-01 -0.154179D-01 -0.225312D-01 -0.146909D-01  0.170888D-01
     47 -0.115102D-02 -0.379262D-02  0.643022D-02  0.909021D-02 -0.266531D-02
     48 -0.372716D-01 -0.100015D-02  0.112301D-01 -0.222456D-02 -0.420066D-02
     49 -0.270169D-01 -0.161509D-02  0.310285D-03  0.935128D-04 -0.165683D-03
     50  0.847428D-01  0.108709D-01  0.886026D-02  0.597082D-02 -0.712591D-02
     51 -0.479703D-01  0.111630D-02  0.115446D-02 -0.977694D-03  0.180657D-03
               41            42            43            44            45 
     41  0.346959D+01
     42 -0.717819D+00  0.387810D+01
     43 -0.132372D+00 -0.524393D-01  0.143976D+02
     44  0.121627D+00  0.818522D-01  0.107695D+01  0.161101D+02
     45  0.758605D-01 -0.354550D-01  0.000000D+00  0.000000D+00  0.141199D+02
     46 -0.133566D-01 -0.881018D-02 -0.229438D+01  0.102075D+01  0.000000D+00
     47 -0.770309D-03  0.123838D-02  0.778063D+00 -0.405051D+01  0.000000D+00
     48  0.296942D-02 -0.150934D-02  0.000000D+00  0.000000D+00 -0.438193D+01
     49  0.397790D-02  0.630494D-03 -0.436469D+01 -0.196943D+00  0.000000D+00
     50  0.119222D-03  0.268850D-02  0.454190D-01 -0.197492D+01  0.000000D+00
     51 -0.351290D-02  0.138378D-03  0.000000D+00  0.000000D+00 -0.431521D+01
               46            47            48            49            50 
     46  0.169644D+01
     47 -0.824985D+00  0.408424D+01
     48  0.000000D+00  0.000000D+00  0.442345D+01
     49  0.431851D-01 -0.109617D+00  0.000000D+00  0.427865D+01
     50 -0.105028D+00 -0.662823D-01  0.000000D+00  0.450343D+00  0.147001D+01
     51  0.000000D+00  0.000000D+00  0.894340D-01  0.000000D+00  0.000000D+00
               51 
     51  0.443679D+01
 Leave Link  701 at Tue Jun  9 16:12:08 2015, MaxMem=   536870912 cpu:         0.9
 (Enter /usr/local/research/Gaussian09/g09-revD.01/g09/l702.exe)
 L702 exits ... SP integral derivatives will be done elsewhere.
 Leave Link  702 at Tue Jun  9 16:12:08 2015, MaxMem=   536870912 cpu:         0.1
 (Enter /usr/local/research/Gaussian09/g09-revD.01/g09/l703.exe)
 Compute integral second derivatives, UseDBF=F ICtDFT=           0.
 Integral derivatives from FoFJK, PRISM(SPDF).
 ICntrl=    100127.
 Calling FoFJK, ICntrl=    100127 FMM=F ISym2X=1 I1Cent= 0 IOpClX= 0 NMat=1 NMatS=1 NMatT=0.
 FoFJK:  IHMeth= 1 ICntrl=  100127 DoSepK=F KAlg= 0 I1Cent=   0 FoldK=F
 IRaf=         0 NMat=   1 IRICut=       1 DoRegI=T DoRafI=F ISym2E= 1.
 FoFCou: FMM=F IPFlag=           0 FMFlag=      100000 FMFlg1=         800
         NFxFlg=           0 DoJE=F BraDBF=F KetDBF=F FulRan=T
         wScrn=  0.000000 ICntrl=  100127 IOpCl=  0 I1Cent=           0 NGrid=           0
         NMat0=    1 NMatS0=      1 NMatT0=    0 NMatD0=    1 NMtDS0=    0 NMtDT0=    0
 Petite list used in FoFCou.
 FoFCou:  KetSym=F NOpSet=  2 NOpAb=2 NOp=  2.
 FoFCou:  CnvScl= 1.00D+00 Thresh= 1.00D-10 IAcrcy=      10.
 PrismS was handed   536666662 working-precision words and  2626 shell-pairs
 FoFCou: LinMIO=F DoNuc=F BraDBF=F KetDBF=F HaveP=T PDBF=F HaveZ=T HaveW=F
         NIJTC =       6 NIJTAt=       0 NIJTCD=       0 NIJTT =       6
         IJTBeg=       1 IJTEnd=       6 KLTBeg=       1 KLTEnd=       6
         IPTBeg=       1 IPTEnd=       6 IPTBCv=       1 IPTECv=       6
         IZTBeg=       1 IZTEnd=       6 IZTBCv=       1 IZTECv=       6
         IWTBeg=       7 IWTEnd=       6 IWTBCv=       7 IWTECv=       6
         INTBeg=       1 INTEnd=       0 IFTBCv=       1 IFTECv=       6
 NCel replicated for PrismC:     1
 CoulSu:  IncDef=  1024 NBBP=        3449251 NTPThr=   100 NPartT=    4 Incr=        1024 LDynOK=F.
[...]
 ! D55   D(1,9,12,14)          120.7844         -DE/DX =    0.0                 !
 ! D56   D(10,9,12,7)         -120.7844         -DE/DX =    0.0                 !
 ! D57   D(10,9,12,13)         121.0422         -DE/DX =    0.0                 !
 ! D58   D(10,9,12,14)           0.0            -DE/DX =    0.0                 !
 ! D59   D(11,9,12,7)          118.1735         -DE/DX =    0.0                 !
 ! D60   D(11,9,12,13)           0.0            -DE/DX =    0.0                 !
 ! D61   D(11,9,12,14)        -121.0422         -DE/DX =    0.0                 !
 --------------------------------------------------------------------------------
 GradGradGradGradGradGradGradGradGradGradGradGradGradGradGradGradGradGrad

 Leave Link  103 at Tue Jun  9 16:13:32 2015, MaxMem=   536870912 cpu:         0.0
 (Enter /usr/local/research/Gaussian09/g09-revD.01/g09/l9999.exe)

 Test job not archived.
 1\1\GINC-HEISENBERG006\Freq\RPBE1PBE\def2SVP\C7H10\LEIN\09-Jun-2015\0\
 \#p pbe1pbe EmpiricalDispersion=GD3BJ def2svp geom=allcheck guess=read
  integral=(grid=ultrafine) freq scf=(conver=10,xqc) pop=(hirshfeld,cm5
 ) density=current iop(7/33=1) iop(6/80=1)\\-- Dielsalder Product --\\0
 ,1\C,0.222775,0.249503,-1.121016\H,0.513408,0.478049,-2.15538\C,-1.121
 974,0.779675,-0.670376\H,-1.96479,0.994613,-1.330675\C,-1.121974,0.779
 675,0.670376\H,-1.96479,0.994613,1.330675\C,0.222775,0.249503,1.121016
 \H,0.513408,0.478049,2.15538\C,0.222775,-1.267918,-0.774294\H,-0.64591
 3,-1.785439,-1.2062\H,1.126798,-1.752112,-1.17531\C,0.222775,-1.267918
 ,0.774294\H,1.126798,-1.752112,1.17531\H,-0.645913,-1.785439,1.2062\C,
 1.122232,0.791649,0.\H,2.13456,0.355201,0.\H,1.190132,1.889557,0.\\Ver
 sion=EM64L-G09RevD.01\State=1-A'\HF=-272.2253358\RMSD=0.000e+00\RMSF=7
 .386e-07\ZeroPoint=0.1536562\Thermal=0.1588535\Dipole=0.050141,-0.1166
 994,0.\DipoleDeriv=-0.0164939,0.008995,-0.0715018,0.0563495,0.0520546,
 -0.0915711,-0.074391,-0.0094614,0.1554282,0.0334855,-0.0021801,0.05208
 96,-0.0053242,0.0276995,0.0426222,0.0458873,0.0353517,-0.1350217,0.032
 9286,-0.097195,0.0422569,-0.0948603,-0.2116047,0.1140015,-0.0279851,0.
 0708296,-0.0353071,-0.0333433,0.0633493,-0.070985,0.0353323,0.1354294,
 -0.0048337,-0.0610742,0.0117713,0.027746,0.0329286,-0.097195,-0.042256
 9,-0.0948603,-0.2116048,-0.1140014,0.0279851,-0.0708296,-0.035307,-0.0
 333433,0.0633493,0.070985,0.0353323,0.1354294,0.0048336,0.0610743,-0.0
 117713,0.027746,-0.0164939,0.008995,0.0715018,0.0563495,0.0520546,0.09
 15711,0.074391,0.0094614,0.1554282,0.0334855,-0.0021801,-0.0520896,-0.
 0053242,0.0276995,-0.0426222,-0.0458874,-0.0353517,-0.1350217,0.083671
 1,0.0114044,0.0552932,-0.0098281,0.0492475,0.0199426,0.0348921,-0.0115
 609,-0.0188649,-0.0476351,-0.0927635,-0.0800413,-0.0538856,-0.0138448,
 -0.0298848,-0.0346649,-0.0336356,-0.0080123,-0.0721126,0.0984704,0.084
 4405,0.0745945,-0.023635,-0.0630871,0.0277942,-0.0248037,0.0108974,0.0
 836711,0.0114044,-0.0552932,-0.0098281,0.0492475,-0.0199426,-0.0348921
 ,0.0115609,-0.0188649,-0.0721126,0.0984704,-0.0844405,0.0745945,-0.023
 635,0.0630871,-0.0277942,0.0248037,0.0108974,-0.0476351,-0.0927635,0.0
 800413,-0.0538856,-0.0138448,0.0298848,0.0346649,0.0336356,-0.0080123,
 0.1399994,-0.0271735,0.,-0.0528633,0.0846682,0.,0.,0.,-0.1012381,-0.14
 47933,0.0419217,0.,0.1042094,0.0266231,0.,0.,0.,0.0655271,0.0437934,0.
 0050908,0.,-0.0561023,-0.1419841,0.,0.,0.,0.0419794\Polar=66.5117108,-
 3.9697606,63.7641704,0.,-0.0000001,72.5668973\PG=CS [SG(C1H2),X(C6H8)]
 \NImag=0\\0.44937644,-0.00344044,0.39123922,-0.07731800,-0.03664882,0.
 69118514,-0.06945029,-0.01572989,0.06938631,0.06893888,-0.01666814,-0.
 05759529,0.05538395,0.01479987,0.06067196,0.06987673,0.05463724,-0.294
 20125,-0.07559815,-0.05873554,0.31318196,-0.17729448,0.03753304,0.0297
 6213,-0.00232555,0.00130013,-0.00140626,0.56200256,0.04087243,-0.07508
 739,-0.00970902,-0.00807438,0.00154795,0.00057219,-0.13042444,0.193719
 05,0.03426212,-0.00820424,-0.09764523,0.02574369,-0.01190793,-0.002480
 96,0.13029902,-0.02361878,0.84546529,-0.00738110,0.00017587,-0.0152705
 7,0.00090168,-0.00033762,0.00032635,-0.22931001,0.05391280,-0.14091790
 ,0.23376924,0.00440193,0.00158903,0.00597401,-0.00012596,0.00002824,-0
 .00031142,0.05184547,-0.04881418,0.03244202,-0.05631688,0.03709325,0.0
 0898980,-0.00198441,0.00918338,-0.00093823,0.00045735,0.00026120,-0.13
 579214,0.03269468,-0.16208860,0.14957570,-0.03718852,0.16414045,-0.006
 07165,0.00287624,0.03063790,-0.00560386,0.00205366,0.00058317,-0.09945
 617,0.00658968,0.00071295,0.00578016,0.00104511,-0.02509013,0.56200256
 ,0.00864288,0.00202356,-0.01123035,0.00222646,0.00013218,0.00051951,0.
 00658968,-0.05881186,0.00490012,0.00016057,0.00558192,0.00727400,-0.13
 042444,0.19371905,0.02631053,-0.01319117,-0.02324599,0.00204623,-0.000
 85009,-0.00045041,-0.00071295,-0.00490012,-0.54800013,0.00558696,-0.00
 008009,-0.00659580,-0.13029902,0.02361878,0.84546529,0.00077510,0.0019
 4648,-0.00112985,0.00055940,0.00004308,-0.00003593,0.00578016,0.000160
 57,-0.00558696,-0.00017734,-0.00183324,0.00067528,-0.22931001,0.053912
 80,0.14091790,0.23376924,0.00274578,0.00990522,-0.00102803,0.00085847,
 -0.00008192,0.00001501,0.00104511,0.00558192,0.00008009,-0.00183324,-0
 .00554674,0.00005234,0.05184547,-0.04881418,-0.03244202,-0.05631688,0.
 03709325,-0.00067327,0.00137244,-0.00568254,0.00136270,-0.00068851,-0.
 00012874,0.02509013,-0.00727400,-0.00659580,-0.00067528,-0.00005234,0.
 00114832,0.13579214,-0.03269468,-0.16208860,-0.14957570,0.03718852,0.1
 6414045,0.00115647,0.00319156,-0.00403178,-0.00304436,-0.00134284,-0.0
 0207170,-0.00607165,0.00864288,-0.02631053,0.00077510,0.00274578,0.000
 67327,-0.17729448,0.04087243,-0.03426212,-0.00738110,0.00440193,-0.008
 98980,0.44937644,0.00319156,-0.01085491,-0.00367794,-0.00132201,-0.001
 29079,-0.00129768,0.00287624,0.00202356,0.01319117,0.00194648,0.009905
 22,-0.00137244,0.03753304,-0.07508739,0.00820424,0.00017587,0.00158903
 ,0.00198441,-0.00344044,0.39123922,0.00403178,0.00367794,-0.05828042,-
 0.00380338,-0.00280470,-0.00303443,-0.03063790,0.01123035,-0.02324599,
 0.00112985,0.00102803,-0.00568254,-0.02976213,0.00970902,-0.09764523,0
 .01527057,-0.00597401,0.00918338,0.07731800,0.03664882,0.69118514,-0.0
 0304436,-0.00132201,0.00380338,0.00099545,0.00042615,0.00076516,-0.005
 60386,0.00222646,-0.00204623,0.00055940,0.00085847,-0.00136270,-0.0023
 2555,-0.00807438,-0.02574369,0.00090168,-0.00012596,0.00093823,-0.0694
 5029,-0.01572989,-0.06938631,0.06893888,-0.00134284,-0.00129079,0.0028
 0470,0.00042615,0.00073754,0.00060021,0.00205366,0.00013218,0.00085009
 ,0.00004308,-0.00008192,0.00068851,0.00130013,0.00154795,0.01190793,-0
 .00033762,0.00002824,-0.00045735,-0.01666814,-0.05759529,-0.05538395,0
 .01479987,0.06067196,0.00207170,0.00129768,-0.00303443,-0.00076516,-0.
 00060021,-0.00067507,-0.00058317,-0.00051951,-0.00045041,0.00003593,-0
 .00001501,-0.00012874,0.00140626,-0.00057219,-0.00248096,-0.00032635,0
 .00031142,0.00026120,-0.06987673,-0.05463724,-0.29420125,0.07559815,0.
 05873554,0.31318196,-0.06817461,0.00329281,0.00032786,-0.00063754,-0.0
 0644289,0.00003209,-0.00409721,0.02906221,0.00129325,-0.00114135,-0.00
 025209,0.00049353,-0.00238746,0.00359095,0.00361771,-0.00023919,-0.002
 07858,-0.00003313,-0.00178719,0.00082994,-0.00020227,0.00065348,-0.000
 49776,-0.00017455,0.62124667,-0.00763988,-0.14517518,0.01690258,0.0000
 9732,-0.00289462,-0.00175614,0.01474344,-0.02205309,-0.01063127,-0.000
 47238,0.00025397,0.00036457,0.00293383,-0.00026878,0.00432085,0.000188
 92,0.00089964,0.00025240,-0.00510276,-0.00200706,-0.02752789,-0.000157
 83,-0.00530023,0.00025990,0.00886087,0.47634828,0.00571021,0.01328479,
 -0.07513748,-0.00046099,0.02742840,-0.00142448,-0.00576684,-0.00388889
 ,0.00418971,0.00052690,0.00029553,-0.00012103,-0.00132430,-0.00234663,
 -0.00636283,0.00002017,0.00134858,-0.00012841,0.00077107,-0.02319094,-
 0.01963671,0.00126476,-0.00087903,0.00009130,0.00666111,0.10048210,0.4
 5881937,0.00155865,0.00231540,0.00113675,-0.00007663,-0.00045272,0.000
 06275,0.00108246,0.00121218,0.00123299,0.00019532,-0.00025878,-0.00028
 747,-0.00027385,-0.00005905,-0.00064099,0.00001214,-0.00000638,-0.0000
 2132,0.00053478,-0.00016677,0.00128548,0.00000284,0.00022805,0.0000579
 5,-0.22623909,-0.10340688,-0.08698590,0.23702148,-0.02124459,-0.013083
 23,-0.01304599,-0.00003888,0.00018117,0.00037422,-0.00196842,0.0014626
 2,0.00108688,0.00029223,-0.00041351,-0.00000111,-0.00032018,0.00072391
 ,-0.00057947,0.00005267,-0.00016038,-0.00006920,0.00016619,-0.00093506
 ,0.00040211,0.00012980,0.00000852,-0.00009924,-0.10013279,-0.10226975,
 -0.04992004,0.10929243,0.11278926,0.00883828,0.00395067,0.00385190,0.0
 0010176,-0.00039089,-0.00003298,0.00033918,-0.00080241,0.00049428,-0.0
 0001855,-0.00018554,0.00000928,-0.00014957,0.00026756,0.00004766,0.000
 05005,-0.00006906,0.00003033,-0.00117252,0.00019904,-0.00351490,0.0000
 3526,-0.00112793,-0.00006231,-0.08472841,-0.04905976,-0.08587417,0.090
 41648,0.05261362,0.09303905,0.00069368,-0.00208233,-0.00088377,0.00036
 746,0.00045418,-0.00023233,0.00039733,0.00069757,0.00062060,0.00005843
 ,-0.00005158,-0.00004488,0.00017306,0.00051193,-0.00100166,0.00005927,
 -0.00001098,-0.00001219,0.00012522,-0.00044063,-0.00077599,-0.00000419
 ,-0.00005659,-0.00003201,-0.23600239,0.09679935,0.08181802,-0.01887160
 ,0.01143747,0.00894484,0.24841303,0.02558721,-0.01315326,-0.01049268,-
 0.00006557,0.00133807,0.00040703,-0.00134254,-0.00534506,0.00069805,0.
 00045079,-0.00024511,-0.00020441,0.00087770,-0.00058646,-0.00055618,0.
 00008000,0.00067883,-0.00011476,-0.00043225,-0.00151109,0.00029549,-0.
 00002158,-0.00004237,-0.00004955,0.09466297,-0.09460638,-0.04457073,-0
 .01260146,0.00700972,0.00571797,-0.10483396,0.10267018,-0.00882809,0.0
 0503254,0.00257226,-0.00034482,-0.00048407,0.00030299,0.00054912,0.002
 08285,0.00062305,-0.00010059,-0.00013546,0.00000065,-0.00120684,0.0010
 2280,-0.00023393,-0.00005272,-0.00020873,0.00003101,0.00041743,0.00019
 866,-0.00311260,0.00014998,-0.00087840,-0.00010969,0.08036102,-0.04396
 069,-0.07793945,-0.00973543,0.00561149,0.00408672,-0.08542218,0.044717
 93,0.08702444,-0.00178719,0.00082994,0.00020227,0.00065348,-0.00049776
 ,0.00017455,-0.00238746,0.00359095,-0.00361771,-0.00023919,-0.00207858
 ,0.00003313,-0.00409721,0.02906221,-0.00129325,-0.00114135,-0.00025209
 ,-0.00049353,-0.06817461,0.00329281,-0.00032786,-0.00063754,-0.0064428
 9,-0.00003209,-0.08161715,0.00076116,-0.00134021,0.00206279,0.00287313
 ,-0.02262317,0.00174987,-0.00246693,0.02357117,0.62124667,-0.00510276,
 -0.00200706,0.02752789,-0.00015783,-0.00530023,-0.00025990,0.00293383,
 -0.00026878,-0.00432085,0.00018892,0.00089964,-0.00025240,0.01474344,-
 0.02205309,0.01063127,-0.00047238,0.00025397,-0.00036457,-0.00763988,-
 0.14517518,-0.01690258,0.00009732,-0.00289462,0.00175614,0.00076116,-0
 .07382987,0.00461143,0.00362779,0.00126555,-0.01264276,-0.00202323,0.0
 0119291,-0.01158418,0.00886087,0.47634828,-0.00077107,0.02319094,-0.01
 963671,-0.00126476,0.00087903,0.00009130,0.00132430,0.00234663,-0.0063
 6283,-0.00002017,-0.00134858,-0.00012841,0.00576684,0.00388889,0.00418
 971,-0.00052690,-0.00029553,-0.00012103,-0.00571021,-0.01328479,-0.075
 13748,0.00046099,-0.02742840,-0.00142448,0.00134021,-0.00461143,-0.172
 38670,0.00306280,0.00296388,-0.00989323,-0.00337156,0.00315621,-0.0112
 6792,-0.00666111,-0.10048210,0.45881937,0.00012522,-0.00044063,0.00077
 599,-0.00000419,-0.00005659,0.00003201,0.00017306,0.00051193,0.0010016
 6,0.00005927,-0.00001098,0.00001219,0.00039733,0.00069757,-0.00062060,
 0.00005843,-0.00005158,0.00004488,0.00069368,-0.00208233,0.00088377,0.
 00036746,0.00045418,0.00023233,0.00174987,-0.00202323,0.00337156,0.000
 54873,0.00013909,-0.00015599,0.00166642,-0.00011269,0.00018183,-0.2360
 0239,0.09679935,-0.08181802,0.24841303,-0.00043225,-0.00151109,-0.0002
 9549,-0.00002158,-0.00004237,0.00004955,0.00087770,-0.00058646,0.00055
 618,0.00008000,0.00067883,0.00011476,-0.00134254,-0.00534506,-0.000698
 05,0.00045079,-0.00024511,0.00020441,0.02558721,-0.01315326,0.01049268
 ,-0.00006557,0.00133807,-0.00040703,-0.00246693,0.00119291,-0.00315621
 ,-0.00003596,0.00003673,-0.00093127,-0.00011269,0.00088041,0.00010960,
 0.09466297,-0.09460638,0.04457073,-0.10483396,0.10267018,-0.00041743,-
 0.00019866,-0.00311260,-0.00014998,0.00087840,-0.00010969,0.00120684,-
 0.00102280,-0.00023393,0.00005272,0.00020873,0.00003101,-0.00054912,-0
 .00208285,0.00062305,0.00010059,0.00013546,0.00000065,0.00882809,-0.00
 503254,0.00257226,0.00034482,0.00048407,0.00030299,-0.02357117,0.01158
 418,-0.01126792,-0.00028743,0.00085666,-0.00349727,-0.00018183,-0.0001
 0960,0.00126188,-0.08036102,0.04396069,-0.07793945,0.08542218,-0.04471
 793,0.08702444,0.00053478,-0.00016677,-0.00128548,0.00000284,0.0002280
 5,-0.00005795,-0.00027385,-0.00005905,0.00064099,0.00001214,-0.0000063
 8,0.00002132,0.00108246,0.00121218,-0.00123299,0.00019532,-0.00025878,
 0.00028747,0.00155865,0.00231540,-0.00113675,-0.00007663,-0.00045272,-
 0.00006275,0.00206279,0.00362779,-0.00306280,0.00135297,-0.00004018,0.
 00004293,0.00054873,-0.00003596,0.00028743,-0.22623909,-0.10340688,0.0
 8698590,-0.01887160,-0.01260146,0.00973543,0.23702148,0.00016619,-0.00
 093506,-0.00040211,0.00012980,0.00000852,0.00009924,-0.00032018,0.0007
 2391,0.00057947,0.00005267,-0.00016038,0.00006920,-0.00196842,0.001462
 62,-0.00108688,0.00029223,-0.00041351,0.00000111,-0.02124459,-0.013083
 23,0.01304599,-0.00003888,0.00018117,-0.00037422,0.00287313,0.00126555
 ,-0.00296388,-0.00004018,0.00066829,0.00013321,0.00013909,0.00003673,-
 0.00085666,-0.10013279,-0.10226975,0.04992004,0.01143747,0.00700972,-0
 .00561149,0.10929243,0.11278926,0.00117252,-0.00019904,-0.00351490,-0.
 00003526,0.00112793,-0.00006231,0.00014957,-0.00026756,0.00004766,-0.0
 0005005,0.00006906,0.00003033,-0.00033918,0.00080241,0.00049428,0.0000
 1855,0.00018554,0.00000928,-0.00883828,-0.00395067,0.00385190,-0.00010
 176,0.00039089,-0.00003298,0.02262317,0.01264276,-0.00989323,-0.000042
 93,-0.00013321,0.00173428,0.00015599,0.00093127,-0.00349727,0.08472841
 ,0.04905976,-0.08587417,-0.00894484,-0.00571797,0.00408672,-0.09041648
 ,-0.05261362,0.09303905,-0.10838629,-0.02245594,-0.04235067,0.00789629
 ,0.00614325,0.00774652,-0.04091716,-0.00741061,-0.01522585,-0.00319708
 ,0.00047299,0.00266424,-0.04091716,-0.00741061,0.01522585,-0.00319708,
 0.00047299,-0.00266424,-0.10838628,-0.02245594,0.04235068,0.00789629,0
 .00614325,-0.00774652,-0.00132394,-0.00838022,-0.00063483,0.00033491,0
 .00031585,0.00012668,0.00026294,0.00123360,0.00064644,-0.00132394,-0.0
 0838022,0.00063483,0.00026294,0.00123360,-0.00064644,0.00033491,0.0003
 1585,-0.00012668,0.60970366,-0.02239531,-0.07859501,-0.02573776,0.0066
 4215,0.00211094,0.00518530,0.01242260,0.00330496,0.00649304,0.00227866
 ,-0.00079313,-0.00102227,0.01242260,0.00330496,-0.00649304,0.00227866,
 -0.00079313,0.00102227,-0.02239531,-0.07859501,0.02573777,0.00664215,0
 .00211094,-0.00518530,-0.02950903,-0.03161240,-0.01558880,0.00026271,-
 0.00689826,0.00210462,-0.00029329,0.00175037,-0.00038108,-0.02950903,-
 0.03161240,0.01558880,-0.00029329,0.00175037,0.00038108,0.00026271,-0.
 00689826,-0.00210462,-0.02612663,0.64100996,-0.04965664,-0.03180268,-0
 .12711407,-0.01678451,-0.01061755,-0.01204732,-0.01216585,0.00624322,-
 0.00005609,0.00091629,-0.00106566,-0.00078322,0.01216585,-0.00624322,-
 0.00005609,-0.00091629,0.00106566,-0.00078322,0.04965664,0.03180268,-0
 .12711407,0.01678451,0.01061756,-0.01204732,-0.00371894,-0.00854534,0.
 00001046,0.00056106,0.00161092,-0.00080237,0.00013799,0.00019819,0.000
 29906,0.00371894,0.00854534,0.00001047,-0.00013799,-0.00019819,0.00029
 906,-0.00056106,-0.00161092,-0.00080237,0.,0.,0.37016633,-0.01053549,0
 .00633085,0.00357423,0.00044821,-0.00004208,-0.00028116,-0.00281681,-0
 .00018532,-0.00135652,-0.00069907,-0.00047499,0.00044449,-0.00281681,-
 0.00018532,0.00135652,-0.00069907,-0.00047499,-0.00044449,-0.01053549,
 0.00633085,-0.00357423,0.00044821,-0.00004208,0.00028116,0.00019154,0.
 00100675,0.00002280,0.00040320,0.00000266,-0.00008869,0.00019719,-0.00
 073763,-0.00030186,0.00019154,0.00100675,-0.00002280,0.00019718,-0.000
 73763,0.00030186,0.00040320,0.00000266,0.00008869,-0.26991080,0.096449
 92,0.,0.29236274,-0.00859732,0.00216333,0.00152668,0.00039308,0.000158
 84,0.00022152,-0.00115793,0.00108645,-0.00172300,-0.00047210,0.0000784
 6,0.00027473,-0.00115793,0.00108645,0.00172300,-0.00047210,0.00007846,
 -0.00027473,-0.00859732,0.00216333,-0.00152668,0.00039308,0.00015884,-
 0.00022152,-0.00062810,0.00040468,-0.00025216,0.00015189,0.00017885,0.
 00006750,-0.00025098,-0.00022927,-0.00031480,-0.00062810,0.00040468,0.
 00025216,-0.00025098,-0.00022927,0.00031480,0.00015189,0.00017885,-0.0
 0006750,0.10099284,-0.09676711,0.,-0.10622339,0.09744420,-0.02218292,0
 .01008903,0.00207016,0.00064735,0.00058770,0.00039504,-0.00249105,-0.0
 0238847,-0.00319789,-0.00105023,0.00023454,0.00070800,0.00249105,0.002
 38847,-0.00319789,0.00105023,-0.00023454,0.00070800,0.02218292,-0.0100
 8903,0.00207016,-0.00064735,-0.00058770,0.00039504,-0.00008918,0.00139
 288,0.00062198,0.00019454,0.00007345,-0.00027707,0.00026916,-0.0003927
 4,0.00002588,0.00008918,-0.00139288,0.00062198,-0.00026916,0.00039274,
 0.00002588,-0.00019454,-0.00007345,-0.00027707,0.,0.,-0.04610002,0.,0.
 ,0.04592424,-0.00209490,-0.01285417,0.00266330,0.00037871,0.00039227,0
 .00008414,0.00111865,-0.00132586,-0.00074559,0.00003439,0.00003972,-0.
 00006739,0.00111865,-0.00132586,0.00074559,0.00003439,0.00003972,0.000
 06739,-0.00209490,-0.01285417,-0.00266330,0.00037871,0.00039227,-0.000
 08414,-0.00225724,-0.00183626,-0.00059075,0.00035090,-0.00095647,0.000
 04144,0.00016555,-0.00024169,-0.00017192,-0.00225724,-0.00183626,0.000
 59075,0.00016555,-0.00024169,0.00017192,0.00035090,-0.00095647,-0.0000
 4144,-0.04913222,-0.00914024,0.,0.00317054,0.02635346,0.,0.05056955,0.
 00125557,-0.00763209,0.00214839,-0.00003718,0.00028982,-0.00032034,0.0
 0099261,0.00138421,-0.00047104,-0.00014987,-0.00005358,0.00003541,0.00
 099261,0.00138421,0.00047104,-0.00014987,-0.00005358,-0.00003541,0.001
 25557,-0.00763209,-0.00214839,-0.00003718,0.00028982,0.00032034,-0.001
 92587,-0.00034767,-0.00069355,-0.00006230,-0.00056445,0.00015543,0.000
 11668,0.00016180,0.00002821,-0.00192587,-0.00034767,0.00069355,0.00011
 668,0.00016180,-0.00002821,-0.00006230,-0.00056445,-0.00015543,-0.0147
 0401,-0.32277780,0.,-0.00202701,-0.00835976,0.,0.01635170,0.34466148,-
 0.00141625,-0.02430425,0.00174277,0.00085721,0.00033674,0.00041513,0.0
 0083585,-0.00077837,-0.00046214,-0.00004736,0.00013069,0.00001573,-0.0
 0083585,0.00077837,-0.00046214,0.00004736,-0.00013069,0.00001573,0.001
 41625,0.02430425,0.00174277,-0.00085721,-0.00033674,0.00041513,-0.0042
 3230,-0.00210973,-0.00356041,-0.00000932,-0.00174496,0.00066079,0.0000
 1181,0.00036851,-0.00006709,0.00423230,0.00210973,-0.00356041,-0.00001
 181,-0.00036851,-0.00006709,0.00000932,0.00174497,0.00066079,0.,0.,-0.
 04307922,0.,0.,-0.00051640,0.,0.,0.04610607\\-0.00000014,0.00000017,-0
 .00000072,-0.00000049,0.00000023,0.00000022,-0.00000007,-0.00000086,0.
 00000101,-0.00000117,-0.00000132,-0.00000027,-0.00000007,-0.00000086,-
 0.00000101,-0.00000117,-0.00000132,0.00000027,-0.00000014,0.00000017,0
 .00000072,-0.00000049,0.00000023,-0.00000022,0.00000114,-0.00000011,0.
 00000060,0.00000115,-0.00000054,-0.00000015,0.00000087,0.00000087,0.00
 000007,0.00000114,-0.00000011,-0.00000060,0.00000087,0.00000087,-0.000
 00007,0.00000115,-0.00000054,0.00000015,-0.00000121,0.00000097,0.,-0.0
 0000012,0.00000139,0.,-0.00000127,0.00000073,0.\\\@


 THE SOLUTION TO A PROBLEM CHANGES THE PROBLEM.

                                 -- JOHN PEERS
           PAUL DICKSON'S "THE OFFICIAL RULES"
 Job cpu time:       0 days  0 hours 17 minutes 55.7 seconds.
 File lengths (MBytes):  RWF=     31 Int=      0 D2E=      0 Chk=      3 Scr=      1
 Normal termination of Gaussian 09 at Tue Jun  9 16:13:33 2015.
