 Entering Gaussian System, Link 0=g09
 Initial command:
 /usr/local/research/Gaussian09/g09-revD.01/g09/l1.exe "/scratch/39141.heisenberg.scps.vuw.ac.nz/Gau-1845.inp" -scrdir="/scratch/39141.heisenberg.scps.vuw.ac.nz/"
 Entering Link 1 = /usr/local/research/Gaussian09/g09-revD.01/g09/l1.exe PID=      1847.
  
 Copyright (c) 1988,1990,1992,1993,1995,1998,2003,2009,2013,
            Gaussian, Inc.  All Rights Reserved.
  
 This is part of the Gaussian(R) 09 program.  It is based on
 the Gaussian(R) 03 system (copyright 2003, Gaussian, Inc.),
 the Gaussian(R) 98 system (copyright 1998, Gaussian, Inc.),
 the Gaussian(R) 94 system (copyright 1995, Gaussian, Inc.),
 the Gaussian 92(TM) system (copyright 1992, Gaussian, Inc.),
 the Gaussian 90(TM) system (copyright 1990, Gaussian, Inc.),
 the Gaussian 88(TM) system (copyright 1988, Gaussian, Inc.),
 the Gaussian 86(TM) system (copyright 1986, Carnegie Mellon
 University), and the Gaussian 82(TM) system (copyright 1983,
 Carnegie Mellon University). Gaussian is a federally registered
 trademark of Gaussian, Inc.
  
 This software contains proprietary and confidential information,
 including trade secrets, belonging to Gaussian, Inc.
  
 This software is provided under written license and may be
 used, copied, transmitted, or stored only in accord with that
 written license.
  
 The following legend is applicable only to US Government
 contracts under FAR:
  
                    RESTRICTED RIGHTS LEGEND
  
 Use, reproduction and disclosure by the US Government is
 subject to restrictions as set forth in subparagraphs (a)
 and (c) of the Commercial Computer Software - Restricted
 Rights clause in FAR 52.227-19.
  
 Gaussian, Inc.
 340 Quinnipiac St., Bldg. 40, Wallingford CT 06492
  
  
 ---------------------------------------------------------------
 Warning -- This program may not be used in any manner that
 competes with the business of Gaussian, Inc. or will provide
 assistance to any competitor of Gaussian, Inc.  The licensee
 of this program is prohibited from giving any competitor of
 Gaussian, Inc. access to this program.  By using this program,
 the user acknowledges that Gaussian, Inc. is engaged in the
 business of creating and licensing software in the field of
 computational chemistry and represents and warrants to the
 licensee that it is not a competitor of Gaussian, Inc. and that
 it will not use this program in any manner prohibited above.
 ---------------------------------------------------------------
  

 Cite this work as:
 Gaussian 09, Revision D.01,
 M. J. Frisch, G. W. Trucks, H. B. Schlegel, G. E. Scuseria, 
 M. A. Robb, J. R. Cheeseman, G. Scalmani, V. Barone, B. Mennucci, 
 G. A. Petersson, H. Nakatsuji, M. Caricato, X. Li, H. P. Hratchian, 
 A. F. Izmaylov, J. Bloino, G. Zheng, J. L. Sonnenberg, M. Hada, 
 M. Ehara, K. Toyota, R. Fukuda, J. Hasegawa, M. Ishida, T. Nakajima, 
 Y. Honda, O. Kitao, H. Nakai, T. Vreven, J. A. Montgomery, Jr., 
 J. E. Peralta, F. Ogliaro, M. Bearpark, J. J. Heyd, E. Brothers, 
 K. N. Kudin, V. N. Staroverov, T. Keith, R. Kobayashi, J. Normand, 
 K. Raghavachari, A. Rendell, J. C. Burant, S. S. Iyengar, J. Tomasi, 
 M. Cossi, N. Rega, J. M. Millam, M. Klene, J. E. Knox, J. B. Cross, 
 V. Bakken, C. Adamo, J. Jaramillo, R. Gomperts, R. E. Stratmann, 
 O. Yazyev, A. J. Austin, R. Cammi, C. Pomelli, J. W. Ochterski, 
 R. L. Martin, K. Morokuma, V. G. Zakrzewski, G. A. Voth, 
 P. Salvador, J. J. Dannenberg, S. Dapprich, A. D. Daniels, 
 O. Farkas, J. B. Foresman, J. V. Ortiz, J. Cioslowski, 
 and D. J. Fox, Gaussian, Inc., Wallingford CT, 2013.
 
 ******************************************
 Gaussian 09:  EM64L-G09RevD.01 24-Apr-2013
                13-Sep-2015 
 ******************************************
 %mem=2048mb
 %NProcShared=4
 Will use up to    4 processors via shared memory.
 %chk=CO_forDissoc_2.chk
 -------------------------------------------------------------
 #p opt freq scf=xqc pbe1pbe def2svp empiricaldispersion=gd3bj
 -------------------------------------------------------------
 1/14=-1,18=20,19=15,26=3,38=1/1,3;
 2/9=110,12=2,17=6,18=5,40=1/2;
 3/5=43,7=101,11=2,16=1,25=1,30=1,71=1,74=-13,124=41/1,2,3;
 4//1;
 5/5=2,8=3,13=1,38=5/2,8;
 6/7=2,8=2,9=2,10=2,28=1/1;
 7//1,2,3,16;
 1/14=-1,18=20,19=15,26=3/3(2);
 2/9=110/2;
 99//99;
 2/9=110/2;
 3/5=43,7=101,11=2,16=1,25=1,30=1,71=1,74=-13,124=41/1,2,3;
 4/5=5,16=3,69=1/1;
 5/5=2,8=3,13=1,38=5/2,8;
 7//1,2,3,16;
 1/14=-1,18=20,19=15,26=3/3(-5);
 2/9=110/2;
 6/7=2,8=2,9=2,10=2,19=2,28=1/1;
 99/9=1/99;
 Leave Link    1 at Sun Sep 13 20:17:56 2015, MaxMem=   268435456 cpu:         0.2
 (Enter /usr/local/research/Gaussian09/g09-revD.01/g09/l101.exe)
 ----------------------------
 -- "CO Optimisation mkII" --
 ----------------------------
 Symbolic Z-matrix:
 Charge =  0 Multiplicity = 1
 O                     1.75676   1.40203   0. 
 C                     0.75676   1.40203   0. 
 
 NAtoms=      2 NQM=        2 NQMF=       0 NMMI=      0 NMMIF=      0
                NMic=       0 NMicF=      0.
                    Isotopes and Nuclear Properties:
 (Nuclear quadrupole moments (NQMom) in fm**2, nuclear magnetic moments (NMagM)
  in nuclear magnetons)

  Atom         1           2
 IAtWgt=          16          12
 AtmWgt=  15.9949146  12.0000000
 NucSpn=           0           0
 AtZEff=   0.0000000   0.0000000
 NQMom=    0.0000000   0.0000000
 NMagM=    0.0000000   0.0000000
 AtZNuc=   8.0000000   6.0000000
 Leave Link  101 at Sun Sep 13 20:17:56 2015, MaxMem=   268435456 cpu:         0.3
 (Enter /usr/local/research/Gaussian09/g09-revD.01/g09/l103.exe)

 GradGradGradGradGradGradGradGradGradGradGradGradGradGradGradGradGradGrad
 Berny optimization.
 Initialization pass.
                           ----------------------------
                           !    Initial Parameters    !
                           ! (Angstroms and Degrees)  !
 --------------------------                            --------------------------
 ! Name  Definition              Value          Derivative Info.                !
 --------------------------------------------------------------------------------
 ! R1    R(1,2)                  1.0            estimate D2E/DX2                !
 --------------------------------------------------------------------------------
 Trust Radius=3.00D-01 FncErr=1.00D-07 GrdErr=1.00D-06
 Number of steps in this run=     20 maximum allowed number of steps=    100.
 GradGradGradGradGradGradGradGradGradGradGradGradGradGradGradGradGradGrad

 Leave Link  103 at Sun Sep 13 20:17:57 2015, MaxMem=   268435456 cpu:         0.0
 (Enter /usr/local/research/Gaussian09/g09-revD.01/g09/l202.exe)
                          Input orientation:                          
 ---------------------------------------------------------------------
 Center     Atomic      Atomic             Coordinates (Angstroms)
 Number     Number       Type             X           Y           Z
 ---------------------------------------------------------------------
      1          8           0        1.756757    1.402027    0.000000
      2          6           0        0.756757    1.402027    0.000000
 ---------------------------------------------------------------------
 Stoichiometry    CO
 Framework group  C*V[C*(CO)]
 Deg. of freedom     1
 Full point group                 C*V     NOp   4
 Largest Abelian subgroup         C2V     NOp   4
 Largest concise Abelian subgroup C1      NOp   1
                         Standard orientation:                         
 ---------------------------------------------------------------------
 Center     Atomic      Atomic             Coordinates (Angstroms)
 Number     Number       Type             X           Y           Z
 ---------------------------------------------------------------------
      1          8           0        0.000000    0.000000    0.428571
      2          6           0        0.000000    0.000000   -0.571429
 ---------------------------------------------------------------------
 Rotational constants (GHZ):      0.0000000     73.7111473     73.7111473
 Leave Link  202 at Sun Sep 13 20:17:57 2015, MaxMem=   268435456 cpu:         0.0
 (Enter /usr/local/research/Gaussian09/g09-revD.01/g09/l301.exe)
 Standard basis: def2SVP (5D, 7F)
 Ernie: Thresh=  0.10000D-02 Tol=  0.10000D-05 Strict=F.
 There are    16 symmetry adapted cartesian basis functions of A1  symmetry.
 There are     2 symmetry adapted cartesian basis functions of A2  symmetry.
 There are     6 symmetry adapted cartesian basis functions of B1  symmetry.
 There are     6 symmetry adapted cartesian basis functions of B2  symmetry.
 There are    14 symmetry adapted basis functions of A1  symmetry.
 There are     2 symmetry adapted basis functions of A2  symmetry.
 There are     6 symmetry adapted basis functions of B1  symmetry.
 There are     6 symmetry adapted basis functions of B2  symmetry.
    28 basis functions,    50 primitive gaussians,    30 cartesian basis functions
     7 alpha electrons        7 beta electrons
       nuclear repulsion energy        25.4005060123 Hartrees.
 IExCor= 1009 DFT=T Ex+Corr=PBE1PBE ExCW=0 ScaHFX=  0.250000
 ScaDFX=  0.750000  0.750000  1.000000  1.000000 ScalE2=  1.000000  1.000000
 IRadAn=      0 IRanWt=     -1 IRanGd=            0 ICorTp=0 IEmpDi=141
 NAtoms=    2 NActive=    2 NUniq=    2 SFac= 1.00D+00 NAtFMM=   60 NAOKFM=F Big=F
 Integral buffers will be    131072 words long.
 Raffenetti 2 integral format.
 Two-electron integral symmetry is turned on.
 R6Disp:  Grimme-D3(BJ) Dispersion energy=       -0.0003379093 Hartrees.
 Nuclear repulsion after empirical dispersion term =       25.4001681030 Hartrees.
 Leave Link  301 at Sun Sep 13 20:17:57 2015, MaxMem=   268435456 cpu:         0.2
 (Enter /usr/local/research/Gaussian09/g09-revD.01/g09/l302.exe)
 NPDir=0 NMtPBC=     1 NCelOv=     1 NCel=       1 NClECP=     1 NCelD=      1
         NCelK=      1 NCelE2=     1 NClLst=     1 CellRange=     0.0.
 One-electron integrals computed using PRISM.
   1 Symmetry operations used in ECPInt.
 ECPInt:  NShTT=      78 NPrTT=     326 LenC2=      79 LenP2D=     313.
 LDataN:  DoStor=T MaxTD1= 4 Len=   56
 NBasis=    28 RedAO= T EigKep=  2.90D-02  NBF=    14     2     6     6
 NBsUse=    28 1.00D-06 EigRej= -1.00D+00 NBFU=    14     2     6     6
 Precomputing XC quadrature grid using
 IXCGrd= 4 IRadAn=           0 IRanWt=          -1 IRanGd=           0 AccXCQ= 0.00D+00.
 Generated NRdTot=       0 NPtTot=           0 NUsed=           0 NTot=          32
 NSgBfM=    30    30    30    30    30 MxSgAt=     2 MxSgA2=     2.
 Leave Link  302 at Sun Sep 13 20:17:57 2015, MaxMem=   268435456 cpu:         0.5
 (Enter /usr/local/research/Gaussian09/g09-revD.01/g09/l303.exe)
 DipDrv:  MaxL=1.
 Leave Link  303 at Sun Sep 13 20:17:57 2015, MaxMem=   268435456 cpu:         0.0
 (Enter /usr/local/research/Gaussian09/g09-revD.01/g09/l401.exe)
 ExpMin= 1.31D-01 ExpMax= 2.27D+03 ExpMxC= 3.41D+02 IAcc=1 IRadAn=         1 AccDes= 0.00D+00
 Harris functional with IExCor= 1009 and IRadAn=       1 diagonalized for initial guess.
 HarFok:  IExCor= 1009 AccDes= 0.00D+00 IRadAn=         1 IDoV= 1 UseB2=F ITyADJ=14
 ICtDFT=  3500011 ScaDFX=  1.000000  1.000000  1.000000  1.000000
 FoFCou: FMM=F IPFlag=           0 FMFlag=      100000 FMFlg1=           0
         NFxFlg=           0 DoJE=T BraDBF=F KetDBF=T FulRan=T
         wScrn=  0.000000 ICntrl=     500 IOpCl=  0 I1Cent=   200000004 NGrid=           0
         NMat0=    1 NMatS0=      1 NMatT0=    0 NMatD0=    1 NMtDS0=    0 NMtDT0=    0
 Petite list used in FoFCou.
 Harris En= -113.056589366215    
 JPrj=0 DoOrth=F DoCkMO=F.
 Initial guess orbital symmetries:
       Occupied  (SG) (SG) (SG) (SG) (PI) (PI) (SG)
       Virtual   (PI) (PI) (SG) (SG) (PI) (PI) (SG) (PI) (PI) (SG)
                 (SG) (DLTA) (DLTA) (PI) (PI) (DLTA) (DLTA) (SG)
                 (PI) (PI) (SG)
 The electronic state of the initial guess is 1-SG.
 Leave Link  401 at Sun Sep 13 20:17:57 2015, MaxMem=   268435456 cpu:         0.6
 (Enter /usr/local/research/Gaussian09/g09-revD.01/g09/l502.exe)
 Closed shell SCF:
 Using DIIS extrapolation, IDIIS=  1040.
 Integral symmetry usage will be decided dynamically.
 Keep R1 ints in memory in symmetry-blocked form, NReq=953401.
 IVT=        9094 IEndB=        9094 NGot=   268435456 MDV=   268401854
 LenX=   268401854 LenY=   268400513
 Requested convergence on RMS density matrix=1.00D-08 within  64 cycles.
 Requested convergence on MAX density matrix=1.00D-06.
 Requested convergence on             energy=1.00D-06.
 No special actions if energy rises.
 FoFCou: FMM=F IPFlag=           0 FMFlag=           0 FMFlg1=           0
         NFxFlg=           0 DoJE=F BraDBF=F KetDBF=F FulRan=T
         wScrn=  0.000000 ICntrl=     600 IOpCl=  0 I1Cent=           0 NGrid=           0
         NMat0=    1 NMatS0=    406 NMatT0=    0 NMatD0=    1 NMtDS0=    0 NMtDT0=    0
 Petite list used in FoFCou.
 Integral accuracy reduced to 1.0D-05 until final iterations.

 Cycle   1  Pass 0  IDiag  1:
 E= -113.020643157112    
 DIIS: error= 3.25D-02 at cycle   1 NSaved=   1.
 NSaved= 1 IEnMin= 1 EnMin= -113.020643157112     IErMin= 1 ErrMin= 3.25D-02
 ErrMax= 3.25D-02  0.00D+00 EMaxC= 1.00D-01 BMatC= 3.01D-02 BMatP= 3.01D-02
 IDIUse=3 WtCom= 6.75D-01 WtEn= 3.25D-01
 Coeff-Com:  0.100D+01
 Coeff-En:   0.100D+01
 Coeff:      0.100D+01
 Gap=     0.434 Goal=   None    Shift=    0.000
 GapD=    0.434 DampG=2.000 DampE=0.500 DampFc=1.0000 IDamp=-1.
 RMSDP=8.66D-03 MaxDP=7.54D-02              OVMax= 8.07D-02

 Cycle   2  Pass 0  IDiag  1:
 E= -113.019461035292     Delta-E=        0.001182121821 Rises=F Damp=F
 DIIS: error= 2.75D-02 at cycle   2 NSaved=   2.
 NSaved= 2 IEnMin= 1 EnMin= -113.020643157112     IErMin= 2 ErrMin= 2.75D-02
 ErrMax= 2.75D-02  0.00D+00 EMaxC= 1.00D-01 BMatC= 3.35D-02 BMatP= 3.01D-02
 IDIUse=2 WtCom= 0.00D+00 WtEn= 1.00D+00
 Coeff-En:   0.514D+00 0.486D+00
 Coeff:      0.514D+00 0.486D+00
 Gap=     0.403 Goal=   None    Shift=    0.000
 RMSDP=4.13D-03 MaxDP=4.69D-02 DE= 1.18D-03 OVMax= 5.92D-02

 Cycle   3  Pass 0  IDiag  1:
 E= -113.040412162659     Delta-E=       -0.020951127368 Rises=F Damp=F
 DIIS: error= 1.24D-02 at cycle   3 NSaved=   3.
 NSaved= 3 IEnMin= 3 EnMin= -113.040412162659     IErMin= 3 ErrMin= 1.24D-02
 ErrMax= 1.24D-02  0.00D+00 EMaxC= 1.00D-01 BMatC= 2.95D-03 BMatP= 3.01D-02
 IDIUse=3 WtCom= 8.76D-01 WtEn= 1.24D-01
 Coeff-Com:  0.189D+00 0.279D+00 0.532D+00
 Coeff-En:   0.000D+00 0.266D-01 0.973D+00
 Coeff:      0.166D+00 0.248D+00 0.587D+00
 Gap=     0.412 Goal=   None    Shift=    0.000
 RMSDP=1.77D-03 MaxDP=2.08D-02 DE=-2.10D-02 OVMax= 1.92D-02

 Cycle   4  Pass 0  IDiag  1:
 E= -113.042636920767     Delta-E=       -0.002224758108 Rises=F Damp=F
 DIIS: error= 2.71D-03 at cycle   4 NSaved=   4.
 NSaved= 4 IEnMin= 4 EnMin= -113.042636920767     IErMin= 4 ErrMin= 2.71D-03
 ErrMax= 2.71D-03  0.00D+00 EMaxC= 1.00D-01 BMatC= 1.48D-04 BMatP= 2.95D-03
 IDIUse=3 WtCom= 9.73D-01 WtEn= 2.71D-02
 Coeff-Com:  0.655D-03 0.394D-03 0.182D+00 0.817D+00
 Coeff-En:   0.000D+00 0.000D+00 0.000D+00 0.100D+01
 Coeff:      0.637D-03 0.383D-03 0.177D+00 0.821D+00
 Gap=     0.411 Goal=   None    Shift=    0.000
 RMSDP=3.19D-04 MaxDP=3.37D-03 DE=-2.22D-03 OVMax= 3.51D-03

 Cycle   5  Pass 0  IDiag  1:
 E= -113.042750026381     Delta-E=       -0.000113105614 Rises=F Damp=F
 DIIS: error= 7.25D-05 at cycle   5 NSaved=   5.
 NSaved= 5 IEnMin= 5 EnMin= -113.042750026381     IErMin= 5 ErrMin= 7.25D-05
 ErrMax= 7.25D-05  0.00D+00 EMaxC= 1.00D-01 BMatC= 1.14D-07 BMatP= 1.48D-04
 IDIUse=1 WtCom= 1.00D+00 WtEn= 0.00D+00
 Coeff-Com: -0.262D-03-0.537D-03 0.500D-02 0.522D-01 0.944D+00
 Coeff:     -0.262D-03-0.537D-03 0.500D-02 0.522D-01 0.944D+00
 Gap=     0.411 Goal=   None    Shift=    0.000
 RMSDP=8.08D-06 MaxDP=1.00D-04 DE=-1.13D-04 OVMax= 7.87D-05

 Initial convergence to 1.0D-05 achieved.  Increase integral accuracy.
 Cycle   6  Pass 1  IDiag  1:
 E= -113.042745370872     Delta-E=        0.000004655509 Rises=F Damp=F
 DIIS: error= 4.70D-06 at cycle   1 NSaved=   1.
 NSaved= 1 IEnMin= 1 EnMin= -113.042745370872     IErMin= 1 ErrMin= 4.70D-06
 ErrMax= 4.70D-06  0.00D+00 EMaxC= 1.00D-01 BMatC= 6.15D-10 BMatP= 6.15D-10
 IDIUse=1 WtCom= 1.00D+00 WtEn= 0.00D+00
 Coeff-Com:  0.100D+01
 Coeff:      0.100D+01
 Gap=     0.411 Goal=   None    Shift=    0.000
 RMSDP=8.08D-06 MaxDP=1.00D-04 DE= 4.66D-06 OVMax= 1.15D-05

 Cycle   7  Pass 1  IDiag  1:
 E= -113.042745370869     Delta-E=        0.000000000003 Rises=F Damp=F
 DIIS: error= 4.73D-06 at cycle   2 NSaved=   2.
 NSaved= 2 IEnMin= 1 EnMin= -113.042745370872     IErMin= 1 ErrMin= 4.70D-06
 ErrMax= 4.73D-06  0.00D+00 EMaxC= 1.00D-01 BMatC= 5.30D-10 BMatP= 6.15D-10
 IDIUse=1 WtCom= 1.00D+00 WtEn= 0.00D+00
 Coeff-Com:  0.475D+00 0.525D+00
 Coeff:      0.475D+00 0.525D+00
 Gap=     0.411 Goal=   None    Shift=    0.000
 RMSDP=7.14D-07 MaxDP=6.52D-06 DE= 3.18D-12 OVMax= 9.35D-06

 Cycle   8  Pass 1  IDiag  1:
 E= -113.042745371198     Delta-E=       -0.000000000329 Rises=F Damp=F
 DIIS: error= 2.16D-06 at cycle   3 NSaved=   3.
 NSaved= 3 IEnMin= 3 EnMin= -113.042745371198     IErMin= 3 ErrMin= 2.16D-06
 ErrMax= 2.16D-06  0.00D+00 EMaxC= 1.00D-01 BMatC= 1.12D-10 BMatP= 5.30D-10
 IDIUse=1 WtCom= 1.00D+00 WtEn= 0.00D+00
 Coeff-Com:  0.160D-01 0.312D+00 0.672D+00
 Coeff:      0.160D-01 0.312D+00 0.672D+00
 Gap=     0.411 Goal=   None    Shift=    0.000
 RMSDP=1.90D-07 MaxDP=2.13D-06 DE=-3.29D-10 OVMax= 2.64D-06

 Cycle   9  Pass 1  IDiag  1:
 E= -113.042745371274     Delta-E=       -0.000000000076 Rises=F Damp=F
 DIIS: error= 1.16D-07 at cycle   4 NSaved=   4.
 NSaved= 4 IEnMin= 4 EnMin= -113.042745371274     IErMin= 4 ErrMin= 1.16D-07
 ErrMax= 1.16D-07  0.00D+00 EMaxC= 1.00D-01 BMatC= 4.78D-13 BMatP= 1.12D-10
 IDIUse=1 WtCom= 1.00D+00 WtEn= 0.00D+00
 Coeff-Com: -0.239D-02 0.750D-01 0.147D+00 0.781D+00
 Coeff:     -0.239D-02 0.750D-01 0.147D+00 0.781D+00
 Gap=     0.411 Goal=   None    Shift=    0.000
 RMSDP=4.33D-08 MaxDP=6.47D-07 DE=-7.59D-11 OVMax= 3.26D-07

 Cycle  10  Pass 1  IDiag  1:
 E= -113.042745371274     Delta-E=        0.000000000000 Rises=F Damp=F
 DIIS: error= 2.03D-08 at cycle   5 NSaved=   5.
 NSaved= 5 IEnMin= 5 EnMin= -113.042745371274     IErMin= 5 ErrMin= 2.03D-08
 ErrMax= 2.03D-08  0.00D+00 EMaxC= 1.00D-01 BMatC= 1.67D-14 BMatP= 4.78D-13
 IDIUse=1 WtCom= 1.00D+00 WtEn= 0.00D+00
 Coeff-Com: -0.858D-03 0.176D-01 0.304D-01 0.230D+00 0.722D+00
 Coeff:     -0.858D-03 0.176D-01 0.304D-01 0.230D+00 0.722D+00
 Gap=     0.411 Goal=   None    Shift=    0.000
 RMSDP=4.06D-09 MaxDP=4.55D-08 DE=-4.55D-13 OVMax= 3.22D-08

 SCF Done:  E(RPBE1PBE) =  -113.042745371     A.U. after   10 cycles
            NFock= 10  Conv=0.41D-08     -V/T= 1.9980
 KE= 1.132646666876D+02 PE=-3.167580339326D+02 EE= 6.505045377076D+01
 Leave Link  502 at Sun Sep 13 20:17:58 2015, MaxMem=   268435456 cpu:         0.7
 (Enter /usr/local/research/Gaussian09/g09-revD.01/g09/l508.exe)
 QCSCF skips out because SCF is already converged.
 Leave Link  508 at Sun Sep 13 20:17:58 2015, MaxMem=   268435456 cpu:         0.0
 (Enter /usr/local/research/Gaussian09/g09-revD.01/g09/l601.exe)
 Copying SCF densities to generalized density rwf, IOpCl= 0 IROHF=0.

 **********************************************************************

            Population analysis using the SCF density.

 **********************************************************************

 Orbital symmetries:
       Occupied  (SG) (SG) (SG) (SG) (PI) (PI) (SG)
       Virtual   (PI) (PI) (SG) (SG) (PI) (PI) (SG) (PI) (PI) (SG)
                 (SG) (DLTA) (DLTA) (PI) (PI) (DLTA) (DLTA) (SG)
                 (PI) (PI) (SG)
 The electronic state is 1-SG.
 Alpha  occ. eigenvalues --  -19.31301 -10.30763  -1.25657  -0.59263  -0.54441
 Alpha  occ. eigenvalues --   -0.54441  -0.37239
 Alpha virt. eigenvalues --    0.03881   0.03881   0.23790   0.43898   0.47463
 Alpha virt. eigenvalues --    0.47463   0.77397   0.97354   0.97354   1.07252
 Alpha virt. eigenvalues --    1.27107   1.59521   1.59522   1.78766   1.78766
 Alpha virt. eigenvalues --    2.64322   2.64322   2.73572   3.36613   3.36613
 Alpha virt. eigenvalues --    3.75979
          Condensed to atoms (all electrons):
               1          2
     1  O    7.133914   0.780604
     2  C    0.780604   5.304879
 Mulliken charges:
               1
     1  O    0.085483
     2  C   -0.085483
 Sum of Mulliken charges =   0.00000
 Mulliken charges with hydrogens summed into heavy atoms:
               1
     1  O    0.085483
     2  C   -0.085483
 Electronic spatial extent (au):  <R**2>=             35.7338
 Charge=              0.0000 electrons
 Dipole moment (field-independent basis, Debye):
    X=              0.0000    Y=              0.0000    Z=              0.6556  Tot=              0.6556
 Quadrupole moment (field-independent basis, Debye-Ang):
   XX=             -9.7352   YY=             -9.7352   ZZ=            -12.1247
   XY=              0.0000   XZ=              0.0000   YZ=              0.0000
 Traceless Quadrupole moment (field-independent basis, Debye-Ang):
   XX=              0.7965   YY=              0.7965   ZZ=             -1.5930
   XY=              0.0000   XZ=              0.0000   YZ=              0.0000
 Octapole moment (field-independent basis, Debye-Ang**2):
  XXX=              0.0000  YYY=              0.0000  ZZZ=              6.3477  XYY=              0.0000
  XXY=              0.0000  XXZ=              1.3424  XZZ=              0.0000  YZZ=              0.0000
  YYZ=              1.3424  XYZ=              0.0000
 Hexadecapole moment (field-independent basis, Debye-Ang**3):
 XXXX=             -7.9652 YYYY=             -7.9652 ZZZZ=            -30.9529 XXXY=              0.0000
 XXXZ=              0.0000 YYYX=              0.0000 YYYZ=              0.0000 ZZZX=              0.0000
 ZZZY=              0.0000 XXYY=             -2.6551 XXZZ=             -6.0286 YYZZ=             -6.0286
 XXYZ=              0.0000 YYXZ=              0.0000 ZZXY=              0.0000
 N-N= 2.540016810300D+01 E-N=-3.167580330711D+02  KE= 1.132646666876D+02
 Symmetry A1   KE= 1.048870369927D+02
 Symmetry A2   KE= 9.630884428918D-51
 Symmetry B1   KE= 4.188814847448D+00
 Symmetry B2   KE= 4.188814847448D+00
 No NMR shielding tensors so no spin-rotation constants.
 Leave Link  601 at Sun Sep 13 20:17:58 2015, MaxMem=   268435456 cpu:         0.5
 (Enter /usr/local/research/Gaussian09/g09-revD.01/g09/l701.exe)
 Compute integral first derivatives.
 ... and contract with generalized density number  0.
 R6Disp: Adding Grimme-D3(BJ) dispersion energy 1st derivatives to the gradient.
   4 Symmetry operations used in ECPInt.
 ECPInt:  NShTT=      78 NPrTT=     326 LenC2=      79 LenP2D=     313.
 LDataN:  DoStor=T MaxTD1= 5 Len=  102
 Leave Link  701 at Sun Sep 13 20:17:58 2015, MaxMem=   268435456 cpu:         0.5
 (Enter /usr/local/research/Gaussian09/g09-revD.01/g09/l702.exe)
 L702 exits ... SP integral derivatives will be done elsewhere.
 Leave Link  702 at Sun Sep 13 20:17:58 2015, MaxMem=   268435456 cpu:         0.1
 (Enter /usr/local/research/Gaussian09/g09-revD.01/g09/l703.exe)
 Compute integral first derivatives, UseDBF=F ICtDFT=           0.
 Integral derivatives from FoFJK, PRISM(SPDF).
 Calling FoFJK, ICntrl=      2127 FMM=F ISym2X=1 I1Cent= 0 IOpClX= 0 NMat=1 NMatS=1 NMatT=0.
 FoFJK:  IHMeth= 1 ICntrl=    2127 DoSepK=F KAlg= 0 I1Cent=   0 FoldK=F
 IRaf=         0 NMat=   1 IRICut=       1 DoRegI=T DoRafI=F ISym2E= 1.
 FoFCou: FMM=F IPFlag=           0 FMFlag=      100000 FMFlg1=         800
         NFxFlg=           0 DoJE=F BraDBF=F KetDBF=F FulRan=T
         wScrn=  0.000000 ICntrl=    2127 IOpCl=  0 I1Cent=           0 NGrid=           0
         NMat0=    1 NMatS0=      1 NMatT0=    0 NMatD0=    1 NMtDS0=    0 NMtDT0=    0
 Petite list used in FoFCou.
 Leave Link  703 at Sun Sep 13 20:17:59 2015, MaxMem=   268435456 cpu:         0.6
 (Enter /usr/local/research/Gaussian09/g09-revD.01/g09/l716.exe)
 Dipole        = 0.00000000D+00 0.00000000D+00 2.57929745D-01
 ***** Axes restored to original set *****
 -------------------------------------------------------------------
 Center     Atomic                   Forces (Hartrees/Bohr)
 Number     Number              X              Y              Z
 -------------------------------------------------------------------
      1        8           0.515608093    0.000000000    0.000000000
      2        6          -0.515608093    0.000000000    0.000000000
 -------------------------------------------------------------------
 Cartesian Forces:  Max     0.515608093 RMS     0.297686471
 Leave Link  716 at Sun Sep 13 20:17:59 2015, MaxMem=   268435456 cpu:         0.1
 (Enter /usr/local/research/Gaussian09/g09-revD.01/g09/l103.exe)

 GradGradGradGradGradGradGradGradGradGradGradGradGradGradGradGradGradGrad
 Berny optimization.
 FormGI is forming the generalized inverse of G from B-inverse, IUseBI=4.
 Internal  Forces:  Max     0.515608093 RMS     0.515608093
 Search for a local minimum.
 Step number   1 out of a maximum of   20
 All quantities printed in internal units (Hartrees-Bohrs-Radians)
 RMS Force = .51561D+00 SwitMx=.10000D-02 MixMth= 1
 Mixed Optimization -- RFO/linear search
 Second derivative matrix not updated -- first step.
 The second derivative matrix:
                          R1
           R1           3.32740
 ITU=  0
     Eigenvalues ---    3.32740
 RFO step:  Lambda=-7.80662116D-02 EMin= 3.32739821D+00
 Linear search not attempted -- first point.
 Iteration  1 RMS(Cart)=  0.10706028 RMS(Int)=  0.00000000
 Iteration  2 RMS(Cart)=  0.00000000 RMS(Int)=  0.00000000
 ITry= 1 IFail=0 DXMaxC= 7.57D-02 DCOld= 1.00D+10 DXMaxT= 3.00D-01 DXLimC= 3.00D+00 Rises=F
 ClnCor:  largest displacement from symmetrization is 0.00D+00 for atom     0.
 Variable       Old X    -DE/DX   Delta X   Delta X   Delta X     New X
                                 (Linear)    (Quad)   (Total)
    R1        1.88973   0.51561   0.00000   0.15141   0.15141   2.04113
         Item               Value     Threshold  Converged?
 Maximum Force            0.515608     0.000450     NO 
 RMS     Force            0.515608     0.000300     NO 
 Maximum Displacement     0.075703     0.001800     NO 
 RMS     Displacement     0.107060     0.001200     NO 
 Predicted change in Energy=-3.992789D-02
 Lowest energy point so far.  Saving SCF results.
 GradGradGradGradGradGradGradGradGradGradGradGradGradGradGradGradGradGrad

 Leave Link  103 at Sun Sep 13 20:17:59 2015, MaxMem=   268435456 cpu:         0.0
 (Enter /usr/local/research/Gaussian09/g09-revD.01/g09/l202.exe)
                          Input orientation:                          
 ---------------------------------------------------------------------
 Center     Atomic      Atomic             Coordinates (Angstroms)
 Number     Number       Type             X           Y           Z
 ---------------------------------------------------------------------
      1          8           0        1.796817    1.402027    0.000000
      2          6           0        0.716696    1.402027    0.000000
 ---------------------------------------------------------------------
 Stoichiometry    CO
 Framework group  C*V[C*(CO)]
 Deg. of freedom     1
 Full point group                 C*V     NOp   4
 RotChk:  IX=0 Diff= 0.00D+00
 Largest Abelian subgroup         C2V     NOp   4
 Largest concise Abelian subgroup C1      NOp   1
                         Standard orientation:                         
 ---------------------------------------------------------------------
 Center     Atomic      Atomic             Coordinates (Angstroms)
 Number     Number       Type             X           Y           Z
 ---------------------------------------------------------------------
      1          8           0        0.000000    0.000000    0.462909
      2          6           0        0.000000    0.000000   -0.617212
 ---------------------------------------------------------------------
 Rotational constants (GHZ):      0.0000000     63.1813099     63.1813099
 Leave Link  202 at Sun Sep 13 20:17:59 2015, MaxMem=   268435456 cpu:         0.0
 (Enter /usr/local/research/Gaussian09/g09-revD.01/g09/l301.exe)
 Standard basis: def2SVP (5D, 7F)
 Ernie: Thresh=  0.10000D-02 Tol=  0.10000D-05 Strict=F.
 There are    16 symmetry adapted cartesian basis functions of A1  symmetry.
 There are     2 symmetry adapted cartesian basis functions of A2  symmetry.
 There are     6 symmetry adapted cartesian basis functions of B1  symmetry.
 There are     6 symmetry adapted cartesian basis functions of B2  symmetry.
 There are    14 symmetry adapted basis functions of A1  symmetry.
 There are     2 symmetry adapted basis functions of A2  symmetry.
 There are     6 symmetry adapted basis functions of B1  symmetry.
 There are     6 symmetry adapted basis functions of B2  symmetry.
    28 basis functions,    50 primitive gaussians,    30 cartesian basis functions
     7 alpha electrons        7 beta electrons
       nuclear repulsion energy        23.5163597827 Hartrees.
 IExCor= 1009 DFT=T Ex+Corr=PBE1PBE ExCW=0 ScaHFX=  0.250000
 ScaDFX=  0.750000  0.750000  1.000000  1.000000 ScalE2=  1.000000  1.000000
 IRadAn=      0 IRanWt=     -1 IRanGd=            0 ICorTp=0 IEmpDi=141
 NAtoms=    2 NActive=    2 NUniq=    2 SFac= 1.00D+00 NAtFMM=   60 NAOKFM=F Big=F
 Integral buffers will be    131072 words long.
 Raffenetti 2 integral format.
 Two-electron integral symmetry is turned on.
 R6Disp:  Grimme-D3(BJ) Dispersion energy=       -0.0003378542 Hartrees.
 Nuclear repulsion after empirical dispersion term =       23.5160219285 Hartrees.
 Leave Link  301 at Sun Sep 13 20:17:59 2015, MaxMem=   268435456 cpu:         0.1
 (Enter /usr/local/research/Gaussian09/g09-revD.01/g09/l302.exe)
 NPDir=0 NMtPBC=     1 NCelOv=     1 NCel=       1 NClECP=     1 NCelD=      1
         NCelK=      1 NCelE2=     1 NClLst=     1 CellRange=     0.0.
 One-electron integrals computed using PRISM.
   1 Symmetry operations used in ECPInt.
 ECPInt:  NShTT=      78 NPrTT=     326 LenC2=      79 LenP2D=     312.
 LDataN:  DoStor=T MaxTD1= 4 Len=   56
 NBasis=    28 RedAO= T EigKep=  3.44D-02  NBF=    14     2     6     6
 NBsUse=    28 1.00D-06 EigRej= -1.00D+00 NBFU=    14     2     6     6
 Precomputing XC quadrature grid using
 IXCGrd= 4 IRadAn=           0 IRanWt=          -1 IRanGd=           0 AccXCQ= 0.00D+00.
 Generated NRdTot=       0 NPtTot=           0 NUsed=           0 NTot=          32
 NSgBfM=    30    30    30    30    30 MxSgAt=     2 MxSgA2=     2.
 Leave Link  302 at Sun Sep 13 20:17:59 2015, MaxMem=   268435456 cpu:         0.5
 (Enter /usr/local/research/Gaussian09/g09-revD.01/g09/l303.exe)
 DipDrv:  MaxL=1.
 Leave Link  303 at Sun Sep 13 20:17:59 2015, MaxMem=   268435456 cpu:         0.1
 (Enter /usr/local/research/Gaussian09/g09-revD.01/g09/l401.exe)
 Initial guess from the checkpoint file:  "CO_forDissoc_2.chk"
 B after Tr=     0.000000    0.000000    0.000000
         Rot=    1.000000    0.000000    0.000000    0.000000 Ang=   0.00 deg.
 Guess basis will be translated and rotated to current coordinates.
 JPrj=2 DoOrth=T DoCkMO=T.
 Initial guess orbital symmetries:
       Occupied  (SG) (SG) (SG) (SG) (PI) (PI) (SG)
       Virtual   (SG) (SG) (SG) (SG) (DLTA) (SG) (DLTA) (SG) (SG)
                 (DLTA) (DLTA) (PI) (PI) (PI) (PI) (PI) (PI) (PI)
                 (PI) (PI) (PI)
 The electronic state of the initial guess is 1-SG.
 Generating alternative initial guess.
 ExpMin= 1.31D-01 ExpMax= 2.27D+03 ExpMxC= 3.41D+02 IAcc=1 IRadAn=         1 AccDes= 0.00D+00
 Harris functional with IExCor= 1009 and IRadAn=       1 diagonalized for initial guess.
 HarFok:  IExCor= 1009 AccDes= 0.00D+00 IRadAn=         1 IDoV= 1 UseB2=F ITyADJ=14
 ICtDFT=  3500011 ScaDFX=  1.000000  1.000000  1.000000  1.000000
 FoFCou: FMM=F IPFlag=           0 FMFlag=      100000 FMFlg1=           0
         NFxFlg=           0 DoJE=T BraDBF=F KetDBF=T FulRan=T
         wScrn=  0.000000 ICntrl=     500 IOpCl=  0 I1Cent=   200000004 NGrid=           0
         NMat0=    1 NMatS0=      1 NMatT0=    0 NMatD0=    1 NMtDS0=    0 NMtDT0=    0
 Petite list used in FoFCou.
 Harris En= -113.093772155640    
 Leave Link  401 at Sun Sep 13 20:18:00 2015, MaxMem=   268435456 cpu:         0.6
 (Enter /usr/local/research/Gaussian09/g09-revD.01/g09/l502.exe)
 Closed shell SCF:
 Using DIIS extrapolation, IDIIS=  1040.
 Integral symmetry usage will be decided dynamically.
 Keep R1 ints in memory in symmetry-blocked form, NReq=953401.
 IVT=        9094 IEndB=        9094 NGot=   268435456 MDV=   268401854
 LenX=   268401854 LenY=   268400513
 Requested convergence on RMS density matrix=1.00D-08 within  64 cycles.
 Requested convergence on MAX density matrix=1.00D-06.
 Requested convergence on             energy=1.00D-06.
 No special actions if energy rises.
 FoFCou: FMM=F IPFlag=           0 FMFlag=           0 FMFlg1=           0
         NFxFlg=           0 DoJE=F BraDBF=F KetDBF=F FulRan=T
         wScrn=  0.000000 ICntrl=     600 IOpCl=  0 I1Cent=           0 NGrid=           0
         NMat0=    1 NMatS0=    406 NMatT0=    0 NMatD0=    1 NMtDS0=    0 NMtDT0=    0
 Petite list used in FoFCou.
 Integral accuracy reduced to 1.0D-05 until final iterations.

 Cycle   1  Pass 0  IDiag  1:
 E= -113.084338747268    
 DIIS: error= 1.24D-02 at cycle   1 NSaved=   1.
 NSaved= 1 IEnMin= 1 EnMin= -113.084338747268     IErMin= 1 ErrMin= 1.24D-02
 ErrMax= 1.24D-02  0.00D+00 EMaxC= 1.00D-01 BMatC= 6.65D-03 BMatP= 6.65D-03
 IDIUse=3 WtCom= 8.76D-01 WtEn= 1.24D-01
 Coeff-Com:  0.100D+01
 Coeff-En:   0.100D+01
 Coeff:      0.100D+01
 Recover alternate guess density for next cycle.
 RMSDP=3.80D-03 MaxDP=4.29D-02              OVMax= 0.00D+00

 Cycle   2  Pass 0  IDiag  1:
 E= -113.076119009961     Delta-E=        0.008219737306 Rises=F Damp=F
 Switch densities from cycles 1 and 2 for lowest energy.
 DIIS: error= 2.76D-02 at cycle   2 NSaved=   2.
 NSaved= 2 IEnMin= 1 EnMin= -113.084338747268     IErMin= 1 ErrMin= 1.24D-02
 ErrMax= 2.76D-02  0.00D+00 EMaxC= 1.00D+00 BMatC= 2.06D-02 BMatP= 6.65D-03
 IDIUse=1 WtCom= 1.00D+00 WtEn= 0.00D+00
 Coeff-Com:  0.109D+01-0.869D-01
 Coeff:      0.109D+01-0.869D-01
 Gap=     1.057 Goal=   None    Shift=    0.000
 RMSDP=3.70D-03 MaxDP=2.22D-02 DE= 8.22D-03 OVMax= 2.72D-02

 Cycle   3  Pass 0  IDiag  1:
 E= -113.089470462176     Delta-E=       -0.013351452215 Rises=F Damp=F
 DIIS: error= 4.99D-03 at cycle   3 NSaved=   3.
 NSaved= 3 IEnMin= 3 EnMin= -113.089470462176     IErMin= 3 ErrMin= 4.99D-03
 ErrMax= 4.99D-03  0.00D+00 EMaxC= 1.00D+00 BMatC= 9.23D-04 BMatP= 6.65D-03
 IDIUse=1 WtCom= 1.00D+00 WtEn= 0.00D+00
 Coeff-Com:  0.105D+00 0.102D+00 0.793D+00
 Coeff:      0.105D+00 0.102D+00 0.793D+00
 Gap=     0.385 Goal=   None    Shift=    0.000
 RMSDP=1.29D-03 MaxDP=1.71D-02 DE=-1.34D-02 OVMax= 9.28D-03

 Cycle   4  Pass 0  IDiag  1:
 E= -113.090179190471     Delta-E=       -0.000708728294 Rises=F Damp=F
 DIIS: error= 1.66D-03 at cycle   4 NSaved=   4.
 NSaved= 4 IEnMin= 4 EnMin= -113.090179190471     IErMin= 4 ErrMin= 1.66D-03
 ErrMax= 1.66D-03  0.00D+00 EMaxC= 1.00D+00 BMatC= 5.34D-05 BMatP= 9.23D-04
 IDIUse=1 WtCom= 1.00D+00 WtEn= 0.00D+00
 Coeff-Com: -0.387D-01 0.600D-01 0.194D+00 0.784D+00
 Coeff:     -0.387D-01 0.600D-01 0.194D+00 0.784D+00
 Gap=     0.384 Goal=   None    Shift=    0.000
 RMSDP=2.77D-04 MaxDP=2.71D-03 DE=-7.09D-04 OVMax= 3.10D-03

 Cycle   5  Pass 0  IDiag  1:
 E= -113.090219337477     Delta-E=       -0.000040147007 Rises=F Damp=F
 DIIS: error= 6.30D-04 at cycle   5 NSaved=   5.
 NSaved= 5 IEnMin= 5 EnMin= -113.090219337477     IErMin= 5 ErrMin= 6.30D-04
 ErrMax= 6.30D-04  0.00D+00 EMaxC= 1.00D+00 BMatC= 8.40D-06 BMatP= 5.34D-05
 IDIUse=1 WtCom= 1.00D+00 WtEn= 0.00D+00
 Coeff-Com: -0.555D-02 0.360D-02 0.356D-01 0.295D+00 0.671D+00
 Coeff:     -0.555D-02 0.360D-02 0.356D-01 0.295D+00 0.671D+00
 Gap=     0.384 Goal=   None    Shift=    0.000
 RMSDP=7.68D-05 MaxDP=8.75D-04 DE=-4.01D-05 OVMax= 9.34D-04

 Cycle   6  Pass 0  IDiag  1:
 E= -113.090226147961     Delta-E=       -0.000006810483 Rises=F Damp=F
 DIIS: error= 2.83D-05 at cycle   6 NSaved=   6.
 NSaved= 6 IEnMin= 6 EnMin= -113.090226147961     IErMin= 6 ErrMin= 2.83D-05
 ErrMax= 2.83D-05  0.00D+00 EMaxC= 1.00D+00 BMatC= 2.91D-08 BMatP= 8.40D-06
 IDIUse=1 WtCom= 1.00D+00 WtEn= 0.00D+00
 Coeff-Com:  0.136D-03-0.456D-03-0.134D-02 0.919D-02 0.798D-01 0.913D+00
 Coeff:      0.136D-03-0.456D-03-0.134D-02 0.919D-02 0.798D-01 0.913D+00
 Gap=     0.384 Goal=   None    Shift=    0.000
 RMSDP=4.08D-06 MaxDP=4.24D-05 DE=-6.81D-06 OVMax= 5.03D-05

 Initial convergence to 1.0D-05 achieved.  Increase integral accuracy.
 Cycle   7  Pass 1  IDiag  1:
 E= -113.090234123801     Delta-E=       -0.000007975840 Rises=F Damp=F
 DIIS: error= 3.07D-06 at cycle   1 NSaved=   1.
 NSaved= 1 IEnMin= 1 EnMin= -113.090234123801     IErMin= 1 ErrMin= 3.07D-06
 ErrMax= 3.07D-06  0.00D+00 EMaxC= 1.00D+00 BMatC= 2.06D-10 BMatP= 2.06D-10
 IDIUse=1 WtCom= 1.00D+00 WtEn= 0.00D+00
 Coeff-Com:  0.100D+01
 Coeff:      0.100D+01
 Gap=     0.384 Goal=   None    Shift=    0.000
 RMSDP=4.08D-06 MaxDP=4.24D-05 DE=-7.98D-06 OVMax= 3.52D-06

 Cycle   8  Pass 1  IDiag  1:
 E= -113.090234123901     Delta-E=       -0.000000000101 Rises=F Damp=F
 DIIS: error= 1.29D-06 at cycle   2 NSaved=   2.
 NSaved= 2 IEnMin= 2 EnMin= -113.090234123901     IErMin= 2 ErrMin= 1.29D-06
 ErrMax= 1.29D-06  0.00D+00 EMaxC= 1.00D+00 BMatC= 3.80D-11 BMatP= 2.06D-10
 IDIUse=1 WtCom= 1.00D+00 WtEn= 0.00D+00
 Coeff-Com:  0.225D+00 0.775D+00
 Coeff:      0.225D+00 0.775D+00
 Gap=     0.384 Goal=   None    Shift=    0.000
 RMSDP=2.63D-07 MaxDP=2.88D-06 DE=-1.01D-10 OVMax= 4.11D-06

 Cycle   9  Pass 1  IDiag  1:
 E= -113.090234123881     Delta-E=        0.000000000020 Rises=F Damp=F
 DIIS: error= 1.65D-06 at cycle   3 NSaved=   3.
 NSaved= 3 IEnMin= 2 EnMin= -113.090234123901     IErMin= 2 ErrMin= 1.29D-06
 ErrMax= 1.65D-06  0.00D+00 EMaxC= 1.00D+00 BMatC= 6.56D-11 BMatP= 3.80D-11
 IDIUse=1 WtCom= 1.00D+00 WtEn= 0.00D+00
 Coeff-Com: -0.144D-01 0.571D+00 0.443D+00
 Coeff:     -0.144D-01 0.571D+00 0.443D+00
 Gap=     0.384 Goal=   None    Shift=    0.000
 RMSDP=1.66D-07 MaxDP=1.57D-06 DE= 1.98D-11 OVMax= 2.32D-06

 Cycle  10  Pass 1  IDiag  1:
 E= -113.090234123929     Delta-E=       -0.000000000048 Rises=F Damp=F
 DIIS: error= 3.32D-08 at cycle   4 NSaved=   4.
 NSaved= 4 IEnMin= 4 EnMin= -113.090234123929     IErMin= 4 ErrMin= 3.32D-08
 ErrMax= 3.32D-08  0.00D+00 EMaxC= 1.00D+00 BMatC= 2.43D-14 BMatP= 3.80D-11
 IDIUse=1 WtCom= 1.00D+00 WtEn= 0.00D+00
 Coeff-Com: -0.325D-02 0.682D-01 0.636D-01 0.871D+00
 Coeff:     -0.325D-02 0.682D-01 0.636D-01 0.871D+00
 Gap=     0.384 Goal=   None    Shift=    0.000
 RMSDP=8.33D-09 MaxDP=1.03D-07 DE=-4.81D-11 OVMax= 7.79D-08

 SCF Done:  E(RPBE1PBE) =  -113.090234124     A.U. after   10 cycles
            NFock= 10  Conv=0.83D-08     -V/T= 2.0036
 KE= 1.126838521281D+02 PE=-3.126941111387D+02 EE= 6.340400295825D+01
 Leave Link  502 at Sun Sep 13 20:18:00 2015, MaxMem=   268435456 cpu:         0.7
 (Enter /usr/local/research/Gaussian09/g09-revD.01/g09/l508.exe)
 QCSCF skips out because SCF is already converged.
 Leave Link  508 at Sun Sep 13 20:18:00 2015, MaxMem=   268435456 cpu:         0.0
 (Enter /usr/local/research/Gaussian09/g09-revD.01/g09/l701.exe)
 Compute integral first derivatives.
 ... and contract with generalized density number  0.
 R6Disp: Adding Grimme-D3(BJ) dispersion energy 1st derivatives to the gradient.
   4 Symmetry operations used in ECPInt.
 ECPInt:  NShTT=      78 NPrTT=     326 LenC2=      79 LenP2D=     312.
 LDataN:  DoStor=T MaxTD1= 5 Len=  102
 Leave Link  701 at Sun Sep 13 20:18:00 2015, MaxMem=   268435456 cpu:         0.5
 (Enter /usr/local/research/Gaussian09/g09-revD.01/g09/l702.exe)
 L702 exits ... SP integral derivatives will be done elsewhere.
 Leave Link  702 at Sun Sep 13 20:18:00 2015, MaxMem=   268435456 cpu:         0.1
 (Enter /usr/local/research/Gaussian09/g09-revD.01/g09/l703.exe)
 Compute integral first derivatives, UseDBF=F ICtDFT=           0.
 Integral derivatives from FoFJK, PRISM(SPDF).
 Calling FoFJK, ICntrl=      2127 FMM=F ISym2X=1 I1Cent= 0 IOpClX= 0 NMat=1 NMatS=1 NMatT=0.
 FoFJK:  IHMeth= 1 ICntrl=    2127 DoSepK=F KAlg= 0 I1Cent=   0 FoldK=F
 IRaf=         0 NMat=   1 IRICut=       1 DoRegI=T DoRafI=F ISym2E= 1.
 FoFCou: FMM=F IPFlag=           0 FMFlag=      100000 FMFlg1=         800
         NFxFlg=           0 DoJE=F BraDBF=F KetDBF=F FulRan=T
         wScrn=  0.000000 ICntrl=    2127 IOpCl=  0 I1Cent=           0 NGrid=           0
         NMat0=    1 NMatS0=      1 NMatT0=    0 NMatD0=    1 NMtDS0=    0 NMtDT0=    0
 Petite list used in FoFCou.
 Leave Link  703 at Sun Sep 13 20:18:01 2015, MaxMem=   268435456 cpu:         0.6
 (Enter /usr/local/research/Gaussian09/g09-revD.01/g09/l716.exe)
 Dipole        = 0.00000000D+00 0.00000000D+00 1.48706448D-01
 ***** Axes restored to original set *****
 -------------------------------------------------------------------
 Center     Atomic                   Forces (Hartrees/Bohr)
 Number     Number              X              Y              Z
 -------------------------------------------------------------------
      1        8           0.144056871    0.000000000    0.000000000
      2        6          -0.144056871    0.000000000    0.000000000
 -------------------------------------------------------------------
 Cartesian Forces:  Max     0.144056871 RMS     0.083171273
 Leave Link  716 at Sun Sep 13 20:18:01 2015, MaxMem=   268435456 cpu:         0.1
 (Enter /usr/local/research/Gaussian09/g09-revD.01/g09/l103.exe)

 GradGradGradGradGradGradGradGradGradGradGradGradGradGradGradGradGradGrad
 Berny optimization.
 Using GEDIIS/GDIIS optimizer.
 Red2BG is reusing G-inverse.
 Internal  Forces:  Max     0.144056871 RMS     0.144056871
 Search for a local minimum.
 Step number   2 out of a maximum of   20
 All quantities printed in internal units (Hartrees-Bohrs-Radians)
 RMS Force = .14406D+00 SwitMx=.10000D-02 MixMth= 1
 Mixed Optimization -- RFO/linear search
 Update second derivatives using D2CorX and points    1    2
 DE= -4.75D-02 DEPred=-3.99D-02 R= 1.19D+00
 TightC=F SS=  1.41D+00  RLast= 1.51D-01 DXNew= 5.0454D-01 4.5422D-01
 Trust test= 1.19D+00 RLast= 1.51D-01 DXMaxT set to 4.54D-01
 The second derivative matrix:
                          R1
           R1           2.45400
 ITU=  1  0
 Use linear search instead of GDIIS.
     Eigenvalues ---    2.45400
 RFO step:  Lambda= 0.00000000D+00 EMin= 2.45400428D+00
 Quartic linear search produced a step of  0.62895.
 Iteration  1 RMS(Cart)=  0.06733550 RMS(Int)=  0.00000000
 Iteration  2 RMS(Cart)=  0.00000000 RMS(Int)=  0.00000000
 ITry= 1 IFail=0 DXMaxC= 4.76D-02 DCOld= 1.00D+10 DXMaxT= 4.54D-01 DXLimC= 3.00D+00 Rises=F
 ClnCor:  largest displacement from symmetrization is 0.00D+00 for atom     0.
 Variable       Old X    -DE/DX   Delta X   Delta X   Delta X     New X
                                 (Linear)    (Quad)   (Total)
    R1        2.04113   0.14406   0.09523   0.00000   0.09523   2.13636
         Item               Value     Threshold  Converged?
 Maximum Force            0.144057     0.000450     NO 
 RMS     Force            0.144057     0.000300     NO 
 Maximum Displacement     0.047613     0.001800     NO 
 RMS     Displacement     0.067335     0.001200     NO 
 Predicted change in Energy=-2.591446D-03
 Lowest energy point so far.  Saving SCF results.
 GradGradGradGradGradGradGradGradGradGradGradGradGradGradGradGradGradGrad

 Leave Link  103 at Sun Sep 13 20:18:01 2015, MaxMem=   268435456 cpu:         0.0
 (Enter /usr/local/research/Gaussian09/g09-revD.01/g09/l202.exe)
                          Input orientation:                          
 ---------------------------------------------------------------------
 Center     Atomic      Atomic             Coordinates (Angstroms)
 Number     Number       Type             X           Y           Z
 ---------------------------------------------------------------------
      1          8           0        1.822013    1.402027    0.000000
      2          6           0        0.691500    1.402027    0.000000
 ---------------------------------------------------------------------
 Stoichiometry    CO
 Framework group  C*V[C*(CO)]
 Deg. of freedom     1
 Full point group                 C*V     NOp   4
 RotChk:  IX=0 Diff= 0.00D+00
 Largest Abelian subgroup         C2V     NOp   4
 Largest concise Abelian subgroup C1      NOp   1
                         Standard orientation:                         
 ---------------------------------------------------------------------
 Center     Atomic      Atomic             Coordinates (Angstroms)
 Number     Number       Type             X           Y           Z
 ---------------------------------------------------------------------
      1          8           0        0.000000    0.000000    0.484505
      2          6           0        0.000000    0.000000   -0.646007
 ---------------------------------------------------------------------
 Rotational constants (GHZ):      0.0000000     57.6743138     57.6743138
 Leave Link  202 at Sun Sep 13 20:18:01 2015, MaxMem=   268435456 cpu:         0.0
 (Enter /usr/local/research/Gaussian09/g09-revD.01/g09/l301.exe)
 Standard basis: def2SVP (5D, 7F)
 Ernie: Thresh=  0.10000D-02 Tol=  0.10000D-05 Strict=F.
 There are    16 symmetry adapted cartesian basis functions of A1  symmetry.
 There are     2 symmetry adapted cartesian basis functions of A2  symmetry.
 There are     6 symmetry adapted cartesian basis functions of B1  symmetry.
 There are     6 symmetry adapted cartesian basis functions of B2  symmetry.
 There are    14 symmetry adapted basis functions of A1  symmetry.
 There are     2 symmetry adapted basis functions of A2  symmetry.
 There are     6 symmetry adapted basis functions of B1  symmetry.
 There are     6 symmetry adapted basis functions of B2  symmetry.
    28 basis functions,    50 primitive gaussians,    30 cartesian basis functions
     7 alpha electrons        7 beta electrons
       nuclear repulsion energy        22.4681337675 Hartrees.
 IExCor= 1009 DFT=T Ex+Corr=PBE1PBE ExCW=0 ScaHFX=  0.250000
 ScaDFX=  0.750000  0.750000  1.000000  1.000000 ScalE2=  1.000000  1.000000
 IRadAn=      0 IRanWt=     -1 IRanGd=            0 ICorTp=0 IEmpDi=141
 NAtoms=    2 NActive=    2 NUniq=    2 SFac= 1.00D+00 NAtFMM=   60 NAOKFM=F Big=F
 Integral buffers will be    131072 words long.
 Raffenetti 2 integral format.
 Two-electron integral symmetry is turned on.
 R6Disp:  Grimme-D3(BJ) Dispersion energy=       -0.0003378074 Hartrees.
 Nuclear repulsion after empirical dispersion term =       22.4677959601 Hartrees.
 Leave Link  301 at Sun Sep 13 20:18:01 2015, MaxMem=   268435456 cpu:         0.2
 (Enter /usr/local/research/Gaussian09/g09-revD.01/g09/l302.exe)
 NPDir=0 NMtPBC=     1 NCelOv=     1 NCel=       1 NClECP=     1 NCelD=      1
         NCelK=      1 NCelE2=     1 NClLst=     1 CellRange=     0.0.
 One-electron integrals computed using PRISM.
   1 Symmetry operations used in ECPInt.
 ECPInt:  NShTT=      78 NPrTT=     326 LenC2=      79 LenP2D=     310.
 LDataN:  DoStor=T MaxTD1= 4 Len=   56
 NBasis=    28 RedAO= T EigKep=  3.83D-02  NBF=    14     2     6     6
 NBsUse=    28 1.00D-06 EigRej= -1.00D+00 NBFU=    14     2     6     6
 Precomputing XC quadrature grid using
 IXCGrd= 4 IRadAn=           0 IRanWt=          -1 IRanGd=           0 AccXCQ= 0.00D+00.
 Generated NRdTot=       0 NPtTot=           0 NUsed=           0 NTot=          32
 NSgBfM=    30    30    30    30    30 MxSgAt=     2 MxSgA2=     2.
 Leave Link  302 at Sun Sep 13 20:18:01 2015, MaxMem=   268435456 cpu:         0.5
 (Enter /usr/local/research/Gaussian09/g09-revD.01/g09/l303.exe)
 DipDrv:  MaxL=1.
 Leave Link  303 at Sun Sep 13 20:18:01 2015, MaxMem=   268435456 cpu:         0.1
 (Enter /usr/local/research/Gaussian09/g09-revD.01/g09/l401.exe)
 Initial guess from the checkpoint file:  "CO_forDissoc_2.chk"
 B after Tr=     0.000000    0.000000    0.000000
         Rot=    1.000000    0.000000    0.000000    0.000000 Ang=   0.00 deg.
 Guess basis will be translated and rotated to current coordinates.
 JPrj=2 DoOrth=T DoCkMO=T.
 Initial guess orbital symmetries:
       Occupied  (SG) (SG) (SG) (SG) (PI) (PI) (SG)
       Virtual   (SG) (SG) (SG) (SG) (DLTA) (SG) (DLTA) (SG) (SG)
                 (DLTA) (DLTA) (PI) (PI) (PI) (PI) (PI) (PI) (PI)
                 (PI) (PI) (PI)
 The electronic state of the initial guess is 1-SG.
 Generating alternative initial guess.
 ExpMin= 1.31D-01 ExpMax= 2.27D+03 ExpMxC= 3.41D+02 IAcc=1 IRadAn=         1 AccDes= 0.00D+00
 Harris functional with IExCor= 1009 and IRadAn=       1 diagonalized for initial guess.
 HarFok:  IExCor= 1009 AccDes= 0.00D+00 IRadAn=         1 IDoV= 1 UseB2=F ITyADJ=14
 ICtDFT=  3500011 ScaDFX=  1.000000  1.000000  1.000000  1.000000
 FoFCou: FMM=F IPFlag=           0 FMFlag=      100000 FMFlg1=           0
         NFxFlg=           0 DoJE=T BraDBF=F KetDBF=T FulRan=T
         wScrn=  0.000000 ICntrl=     500 IOpCl=  0 I1Cent=   200000004 NGrid=           0
         NMat0=    1 NMatS0=      1 NMatT0=    0 NMatD0=    1 NMtDS0=    0 NMtDT0=    0
 Petite list used in FoFCou.
 Harris En= -113.098238556532    
 Leave Link  401 at Sun Sep 13 20:18:01 2015, MaxMem=   268435456 cpu:         0.6
 (Enter /usr/local/research/Gaussian09/g09-revD.01/g09/l502.exe)
 Closed shell SCF:
 Using DIIS extrapolation, IDIIS=  1040.
 Integral symmetry usage will be decided dynamically.
 Keep R1 ints in memory in symmetry-blocked form, NReq=953401.
 IVT=        9094 IEndB=        9094 NGot=   268435456 MDV=   268401854
 LenX=   268401854 LenY=   268400513
 Requested convergence on RMS density matrix=1.00D-08 within  64 cycles.
 Requested convergence on MAX density matrix=1.00D-06.
 Requested convergence on             energy=1.00D-06.
 No special actions if energy rises.
 FoFCou: FMM=F IPFlag=           0 FMFlag=           0 FMFlg1=           0
         NFxFlg=           0 DoJE=F BraDBF=F KetDBF=F FulRan=T
         wScrn=  0.000000 ICntrl=     600 IOpCl=  0 I1Cent=           0 NGrid=           0
         NMat0=    1 NMatS0=    406 NMatT0=    0 NMatD0=    1 NMtDS0=    0 NMtDT0=    0
 Petite list used in FoFCou.
 Integral accuracy reduced to 1.0D-05 until final iterations.

 Cycle   1  Pass 0  IDiag  1:
 E= -113.094405237557    
 DIIS: error= 6.13D-03 at cycle   1 NSaved=   1.
 NSaved= 1 IEnMin= 1 EnMin= -113.094405237557     IErMin= 1 ErrMin= 6.13D-03
 ErrMax= 6.13D-03  0.00D+00 EMaxC= 1.00D-01 BMatC= 2.11D-03 BMatP= 2.11D-03
 IDIUse=3 WtCom= 9.39D-01 WtEn= 6.13D-02
 Coeff-Com:  0.100D+01
 Coeff-En:   0.100D+01
 Coeff:      0.100D+01
 Gap=     1.077 Goal=   None    Shift=    0.000
 GapD=    1.077 DampG=2.000 DampE=1.000 DampFc=2.0000 IDamp=-1.
 RMSDP=2.20D-03 MaxDP=1.35D-02              OVMax= 1.60D-02

 Cycle   2  Pass 0  IDiag  1:
 E= -113.095997651042     Delta-E=       -0.001592413486 Rises=F Damp=F
 DIIS: error= 4.00D-03 at cycle   2 NSaved=   2.
 NSaved= 2 IEnMin= 2 EnMin= -113.095997651042     IErMin= 2 ErrMin= 4.00D-03
 ErrMax= 4.00D-03  0.00D+00 EMaxC= 1.00D-01 BMatC= 5.26D-04 BMatP= 2.11D-03
 IDIUse=3 WtCom= 9.60D-01 WtEn= 4.00D-02
 Coeff-Com:  0.291D+00 0.709D+00
 Coeff-En:   0.000D+00 0.100D+01
 Coeff:      0.280D+00 0.720D+00
 Gap=     0.367 Goal=   None    Shift=    0.000
 RMSDP=8.37D-04 MaxDP=8.70D-03 DE=-1.59D-03 OVMax= 1.03D-02

 Cycle   3  Pass 0  IDiag  1:
 E= -113.096102502141     Delta-E=       -0.000104851099 Rises=F Damp=F
 DIIS: error= 3.91D-03 at cycle   3 NSaved=   3.
 NSaved= 3 IEnMin= 3 EnMin= -113.096102502141     IErMin= 3 ErrMin= 3.91D-03
 ErrMax= 3.91D-03  0.00D+00 EMaxC= 1.00D-01 BMatC= 3.89D-04 BMatP= 5.26D-04
 IDIUse=3 WtCom= 9.61D-01 WtEn= 3.91D-02
 Coeff-Com:  0.847D-01 0.464D+00 0.452D+00
 Coeff-En:   0.000D+00 0.426D+00 0.574D+00
 Coeff:      0.814D-01 0.462D+00 0.456D+00
 Gap=     0.369 Goal=   None    Shift=    0.000
 RMSDP=4.93D-04 MaxDP=4.80D-03 DE=-1.05D-04 OVMax= 7.34D-03

 Cycle   4  Pass 0  IDiag  1:
 E= -113.096365442329     Delta-E=       -0.000262940188 Rises=F Damp=F
 DIIS: error= 1.29D-03 at cycle   4 NSaved=   4.
 NSaved= 4 IEnMin= 4 EnMin= -113.096365442329     IErMin= 4 ErrMin= 1.29D-03
 ErrMax= 1.29D-03  0.00D+00 EMaxC= 1.00D-01 BMatC= 3.11D-05 BMatP= 3.89D-04
 IDIUse=3 WtCom= 9.87D-01 WtEn= 1.29D-02
 Coeff-Com: -0.111D-01 0.956D-01 0.260D+00 0.655D+00
 Coeff-En:   0.000D+00 0.000D+00 0.897D-01 0.910D+00
 Coeff:     -0.109D-01 0.944D-01 0.258D+00 0.658D+00
 Gap=     0.369 Goal=   None    Shift=    0.000
 RMSDP=1.50D-04 MaxDP=1.48D-03 DE=-2.63D-04 OVMax= 1.81D-03

 Cycle   5  Pass 0  IDiag  1:
 E= -113.096392085554     Delta-E=       -0.000026643224 Rises=F Damp=F
 DIIS: error= 1.93D-05 at cycle   5 NSaved=   5.
 NSaved= 5 IEnMin= 5 EnMin= -113.096392085554     IErMin= 5 ErrMin= 1.93D-05
 ErrMax= 1.93D-05  0.00D+00 EMaxC= 1.00D-01 BMatC= 1.22D-08 BMatP= 3.11D-05
 IDIUse=1 WtCom= 1.00D+00 WtEn= 0.00D+00
 Coeff-Com: -0.654D-03-0.158D-02 0.220D-02 0.263D-01 0.974D+00
 Coeff:     -0.654D-03-0.158D-02 0.220D-02 0.263D-01 0.974D+00
 Gap=     0.369 Goal=   None    Shift=    0.000
 RMSDP=7.19D-06 MaxDP=1.03D-04 DE=-2.66D-05 OVMax= 5.50D-05

 Initial convergence to 1.0D-05 achieved.  Increase integral accuracy.
 Cycle   6  Pass 1  IDiag  1:
 E= -113.096391441864     Delta-E=        0.000000643690 Rises=F Damp=F
 DIIS: error= 4.68D-06 at cycle   1 NSaved=   1.
 NSaved= 1 IEnMin= 1 EnMin= -113.096391441864     IErMin= 1 ErrMin= 4.68D-06
 ErrMax= 4.68D-06  0.00D+00 EMaxC= 1.00D-01 BMatC= 6.60D-10 BMatP= 6.60D-10
 IDIUse=1 WtCom= 1.00D+00 WtEn= 0.00D+00
 Coeff-Com:  0.100D+01
 Coeff:      0.100D+01
 Gap=     0.369 Goal=   None    Shift=    0.000
 RMSDP=7.19D-06 MaxDP=1.03D-04 DE= 6.44D-07 OVMax= 1.53D-05

 Cycle   7  Pass 1  IDiag  1:
 E= -113.096391441894     Delta-E=       -0.000000000030 Rises=F Damp=F
 DIIS: error= 5.14D-06 at cycle   2 NSaved=   2.
 NSaved= 2 IEnMin= 2 EnMin= -113.096391441894     IErMin= 1 ErrMin= 4.68D-06
 ErrMax= 5.14D-06  0.00D+00 EMaxC= 1.00D-01 BMatC= 5.64D-10 BMatP= 6.60D-10
 IDIUse=1 WtCom= 1.00D+00 WtEn= 0.00D+00
 Coeff-Com:  0.475D+00 0.525D+00
 Coeff:      0.475D+00 0.525D+00
 Gap=     0.369 Goal=   None    Shift=    0.000
 RMSDP=8.73D-07 MaxDP=7.83D-06 DE=-3.02D-11 OVMax= 1.23D-05

 Cycle   8  Pass 1  IDiag  1:
 E= -113.096391442180     Delta-E=       -0.000000000286 Rises=F Damp=F
 DIIS: error= 3.39D-06 at cycle   3 NSaved=   3.
 NSaved= 3 IEnMin= 3 EnMin= -113.096391442180     IErMin= 3 ErrMin= 3.39D-06
 ErrMax= 3.39D-06  0.00D+00 EMaxC= 1.00D-01 BMatC= 2.79D-10 BMatP= 5.64D-10
 IDIUse=1 WtCom= 1.00D+00 WtEn= 0.00D+00
 Coeff-Com:  0.975D-01 0.402D+00 0.501D+00
 Coeff:      0.975D-01 0.402D+00 0.501D+00
 Gap=     0.369 Goal=   None    Shift=    0.000
 RMSDP=2.91D-07 MaxDP=3.26D-06 DE=-2.86D-10 OVMax= 4.35D-06

 Cycle   9  Pass 1  IDiag  1:
 E= -113.096391442381     Delta-E=       -0.000000000201 Rises=F Damp=F
 DIIS: error= 2.75D-07 at cycle   4 NSaved=   4.
 NSaved= 4 IEnMin= 4 EnMin= -113.096391442381     IErMin= 4 ErrMin= 2.75D-07
 ErrMax= 2.75D-07  0.00D+00 EMaxC= 1.00D-01 BMatC= 1.97D-12 BMatP= 2.79D-10
 IDIUse=1 WtCom= 1.00D+00 WtEn= 0.00D+00
 Coeff-Com:  0.329D-02 0.103D+00 0.935D-01 0.800D+00
 Coeff:      0.329D-02 0.103D+00 0.935D-01 0.800D+00
 Gap=     0.369 Goal=   None    Shift=    0.000
 RMSDP=6.59D-08 MaxDP=8.79D-07 DE=-2.01D-10 OVMax= 4.39D-07

 Cycle  10  Pass 1  IDiag  1:
 E= -113.096391442383     Delta-E=       -0.000000000002 Rises=F Damp=F
 DIIS: error= 3.06D-08 at cycle   5 NSaved=   5.
 NSaved= 5 IEnMin= 5 EnMin= -113.096391442383     IErMin= 5 ErrMin= 3.06D-08
 ErrMax= 3.06D-08  0.00D+00 EMaxC= 1.00D-01 BMatC= 3.61D-14 BMatP= 1.97D-12
 IDIUse=1 WtCom= 1.00D+00 WtEn= 0.00D+00
 Coeff-Com: -0.239D-02 0.117D-01 0.169D-02 0.155D+00 0.834D+00
 Coeff:     -0.239D-02 0.117D-01 0.169D-02 0.155D+00 0.834D+00
 Gap=     0.369 Goal=   None    Shift=    0.000
 RMSDP=5.24D-09 MaxDP=4.88D-08 DE=-1.90D-12 OVMax= 4.31D-08

 SCF Done:  E(RPBE1PBE) =  -113.096391442     A.U. after   10 cycles
            NFock= 10  Conv=0.52D-08     -V/T= 2.0061
 KE= 1.124154220021D+02 PE=-3.104530757186D+02 EE= 6.247346631402D+01
 Leave Link  502 at Sun Sep 13 20:18:02 2015, MaxMem=   268435456 cpu:         0.7
 (Enter /usr/local/research/Gaussian09/g09-revD.01/g09/l508.exe)
 QCSCF skips out because SCF is already converged.
 Leave Link  508 at Sun Sep 13 20:18:02 2015, MaxMem=   268435456 cpu:         0.0
 (Enter /usr/local/research/Gaussian09/g09-revD.01/g09/l701.exe)
 Compute integral first derivatives.
 ... and contract with generalized density number  0.
 R6Disp: Adding Grimme-D3(BJ) dispersion energy 1st derivatives to the gradient.
   4 Symmetry operations used in ECPInt.
 ECPInt:  NShTT=      78 NPrTT=     326 LenC2=      79 LenP2D=     310.
 LDataN:  DoStor=T MaxTD1= 5 Len=  102
 Leave Link  701 at Sun Sep 13 20:18:02 2015, MaxMem=   268435456 cpu:         0.5
 (Enter /usr/local/research/Gaussian09/g09-revD.01/g09/l702.exe)
 L702 exits ... SP integral derivatives will be done elsewhere.
 Leave Link  702 at Sun Sep 13 20:18:02 2015, MaxMem=   268435456 cpu:         0.1
 (Enter /usr/local/research/Gaussian09/g09-revD.01/g09/l703.exe)
 Compute integral first derivatives, UseDBF=F ICtDFT=           0.
 Integral derivatives from FoFJK, PRISM(SPDF).
 Calling FoFJK, ICntrl=      2127 FMM=F ISym2X=1 I1Cent= 0 IOpClX= 0 NMat=1 NMatS=1 NMatT=0.
 FoFJK:  IHMeth= 1 ICntrl=    2127 DoSepK=F KAlg= 0 I1Cent=   0 FoldK=F
 IRaf=         0 NMat=   1 IRICut=       1 DoRegI=T DoRafI=F ISym2E= 1.
 FoFCou: FMM=F IPFlag=           0 FMFlag=      100000 FMFlg1=         800
         NFxFlg=           0 DoJE=F BraDBF=F KetDBF=F FulRan=T
         wScrn=  0.000000 ICntrl=    2127 IOpCl=  0 I1Cent=           0 NGrid=           0
         NMat0=    1 NMatS0=      1 NMatT0=    0 NMatD0=    1 NMtDS0=    0 NMtDT0=    0
 Petite list used in FoFCou.
 Leave Link  703 at Sun Sep 13 20:18:02 2015, MaxMem=   268435456 cpu:         0.6
 (Enter /usr/local/research/Gaussian09/g09-revD.01/g09/l716.exe)
 Dipole        = 0.00000000D+00 0.00000000D+00 7.80922015D-02
 ***** Axes restored to original set *****
 -------------------------------------------------------------------
 Center     Atomic                   Forces (Hartrees/Bohr)
 Number     Number              X              Y              Z
 -------------------------------------------------------------------
      1        8          -0.006153917    0.000000000    0.000000000
      2        6           0.006153917    0.000000000    0.000000000
 -------------------------------------------------------------------
 Cartesian Forces:  Max     0.006153917 RMS     0.003552966
 Leave Link  716 at Sun Sep 13 20:18:02 2015, MaxMem=   268435456 cpu:         0.1
 (Enter /usr/local/research/Gaussian09/g09-revD.01/g09/l103.exe)

 GradGradGradGradGradGradGradGradGradGradGradGradGradGradGradGradGradGrad
 Berny optimization.
 Using GEDIIS/GDIIS optimizer.
 Red2BG is reusing G-inverse.
 Internal  Forces:  Max     0.006153917 RMS     0.006153917
 Search for a local minimum.
 Step number   3 out of a maximum of   20
 All quantities printed in internal units (Hartrees-Bohrs-Radians)
 RMS Force = .61539D-02 SwitMx=.10000D-02 MixMth= 1
 Mixed Optimization -- RFO/linear search
 Update second derivatives using D2CorX and points    2    3
 DE= -6.16D-03 DEPred=-2.59D-03 R= 2.38D+00
 TightC=F SS=  1.41D+00  RLast= 9.52D-02 DXNew= 7.6390D-01 2.8568D-01
 Trust test= 2.38D+00 RLast= 9.52D-02 DXMaxT set to 4.54D-01
 The second derivative matrix:
                          R1
           R1           1.57740
 ITU=  1  1
 Use linear search instead of GDIIS.
     Eigenvalues ---    1.57740
 RFO step:  Lambda= 0.00000000D+00 EMin= 1.57740078D+00
 Quartic linear search produced a step of -0.04871.
 Iteration  1 RMS(Cart)=  0.00327968 RMS(Int)=  0.00000000
 Iteration  2 RMS(Cart)=  0.00000000 RMS(Int)=  0.00000000
 ITry= 1 IFail=0 DXMaxC= 2.32D-03 DCOld= 1.00D+10 DXMaxT= 4.54D-01 DXLimC= 3.00D+00 Rises=F
 ClnCor:  largest displacement from symmetrization is 0.00D+00 for atom     0.
 Variable       Old X    -DE/DX   Delta X   Delta X   Delta X     New X
                                 (Linear)    (Quad)   (Total)
    R1        2.13636  -0.00615  -0.00464   0.00000  -0.00464   2.13172
         Item               Value     Threshold  Converged?
 Maximum Force            0.006154     0.000450     NO 
 RMS     Force            0.006154     0.000300     NO 
 Maximum Displacement     0.002319     0.001800     NO 
 RMS     Displacement     0.003280     0.001200     NO 
 Predicted change in Energy=-1.157590D-05
 Lowest energy point so far.  Saving SCF results.
 GradGradGradGradGradGradGradGradGradGradGradGradGradGradGradGradGradGrad

 Leave Link  103 at Sun Sep 13 20:18:03 2015, MaxMem=   268435456 cpu:         0.0
 (Enter /usr/local/research/Gaussian09/g09-revD.01/g09/l202.exe)
                          Input orientation:                          
 ---------------------------------------------------------------------
 Center     Atomic      Atomic             Coordinates (Angstroms)
 Number     Number       Type             X           Y           Z
 ---------------------------------------------------------------------
      1          8           0        1.820786    1.402027    0.000000
      2          6           0        0.692728    1.402027    0.000000
 ---------------------------------------------------------------------
 Stoichiometry    CO
 Framework group  C*V[C*(CO)]
 Deg. of freedom     1
 Full point group                 C*V     NOp   4
 RotChk:  IX=0 Diff= 0.00D+00
 Largest Abelian subgroup         C2V     NOp   4
 Largest concise Abelian subgroup C1      NOp   1
                         Standard orientation:                         
 ---------------------------------------------------------------------
 Center     Atomic      Atomic             Coordinates (Angstroms)
 Number     Number       Type             X           Y           Z
 ---------------------------------------------------------------------
      1          8           0        0.000000    0.000000    0.483453
      2          6           0        0.000000    0.000000   -0.644605
 ---------------------------------------------------------------------
 Rotational constants (GHZ):      0.0000000     57.9255609     57.9255609
 Leave Link  202 at Sun Sep 13 20:18:03 2015, MaxMem=   268435456 cpu:         0.0
 (Enter /usr/local/research/Gaussian09/g09-revD.01/g09/l301.exe)
 Standard basis: def2SVP (5D, 7F)
 Ernie: Thresh=  0.10000D-02 Tol=  0.10000D-05 Strict=F.
 There are    16 symmetry adapted cartesian basis functions of A1  symmetry.
 There are     2 symmetry adapted cartesian basis functions of A2  symmetry.
 There are     6 symmetry adapted cartesian basis functions of B1  symmetry.
 There are     6 symmetry adapted cartesian basis functions of B2  symmetry.
 There are    14 symmetry adapted basis functions of A1  symmetry.
 There are     2 symmetry adapted basis functions of A2  symmetry.
 There are     6 symmetry adapted basis functions of B1  symmetry.
 There are     6 symmetry adapted basis functions of B2  symmetry.
    28 basis functions,    50 primitive gaussians,    30 cartesian basis functions
     7 alpha electrons        7 beta electrons
       nuclear repulsion energy        22.5170196503 Hartrees.
 IExCor= 1009 DFT=T Ex+Corr=PBE1PBE ExCW=0 ScaHFX=  0.250000
 ScaDFX=  0.750000  0.750000  1.000000  1.000000 ScalE2=  1.000000  1.000000
 IRadAn=      0 IRanWt=     -1 IRanGd=            0 ICorTp=0 IEmpDi=141
 NAtoms=    2 NActive=    2 NUniq=    2 SFac= 1.00D+00 NAtFMM=   60 NAOKFM=F Big=F
 Integral buffers will be    131072 words long.
 Raffenetti 2 integral format.
 Two-electron integral symmetry is turned on.
 R6Disp:  Grimme-D3(BJ) Dispersion energy=       -0.0003378099 Hartrees.
 Nuclear repulsion after empirical dispersion term =       22.5166818404 Hartrees.
 Leave Link  301 at Sun Sep 13 20:18:03 2015, MaxMem=   268435456 cpu:         0.2
 (Enter /usr/local/research/Gaussian09/g09-revD.01/g09/l302.exe)
 NPDir=0 NMtPBC=     1 NCelOv=     1 NCel=       1 NClECP=     1 NCelD=      1
         NCelK=      1 NCelE2=     1 NClLst=     1 CellRange=     0.0.
 One-electron integrals computed using PRISM.
   1 Symmetry operations used in ECPInt.
 ECPInt:  NShTT=      78 NPrTT=     326 LenC2=      79 LenP2D=     310.
 LDataN:  DoStor=T MaxTD1= 4 Len=   56
 NBasis=    28 RedAO= T EigKep=  3.81D-02  NBF=    14     2     6     6
 NBsUse=    28 1.00D-06 EigRej= -1.00D+00 NBFU=    14     2     6     6
 Precomputing XC quadrature grid using
 IXCGrd= 4 IRadAn=           0 IRanWt=          -1 IRanGd=           0 AccXCQ= 0.00D+00.
 Generated NRdTot=       0 NPtTot=           0 NUsed=           0 NTot=          32
 NSgBfM=    30    30    30    30    30 MxSgAt=     2 MxSgA2=     2.
 Leave Link  302 at Sun Sep 13 20:18:03 2015, MaxMem=   268435456 cpu:         0.5
 (Enter /usr/local/research/Gaussian09/g09-revD.01/g09/l303.exe)
 DipDrv:  MaxL=1.
 Leave Link  303 at Sun Sep 13 20:18:03 2015, MaxMem=   268435456 cpu:         0.1
 (Enter /usr/local/research/Gaussian09/g09-revD.01/g09/l401.exe)
 Initial guess from the checkpoint file:  "CO_forDissoc_2.chk"
 B after Tr=     0.000000    0.000000    0.000000
         Rot=    1.000000    0.000000    0.000000    0.000000 Ang=   0.00 deg.
 Guess basis will be translated and rotated to current coordinates.
 JPrj=2 DoOrth=T DoCkMO=T.
 Initial guess orbital symmetries:
       Occupied  (SG) (SG) (SG) (SG) (PI) (PI) (SG)
       Virtual   (SG) (SG) (SG) (SG) (DLTA) (SG) (DLTA) (SG) (SG)
                 (DLTA) (DLTA) (PI) (PI) (PI) (PI) (PI) (PI) (PI)
                 (PI) (PI) (PI)
 The electronic state of the initial guess is 1-SG.
 Leave Link  401 at Sun Sep 13 20:18:03 2015, MaxMem=   268435456 cpu:         0.2
 (Enter /usr/local/research/Gaussian09/g09-revD.01/g09/l502.exe)
 Closed shell SCF:
 Using DIIS extrapolation, IDIIS=  1040.
 Integral symmetry usage will be decided dynamically.
 Keep R1 ints in memory in symmetry-blocked form, NReq=953401.
 IVT=        9094 IEndB=        9094 NGot=   268435456 MDV=   268401854
 LenX=   268401854 LenY=   268400513
 Requested convergence on RMS density matrix=1.00D-08 within  64 cycles.
 Requested convergence on MAX density matrix=1.00D-06.
 Requested convergence on             energy=1.00D-06.
 No special actions if energy rises.
 FoFCou: FMM=F IPFlag=           0 FMFlag=           0 FMFlg1=           0
         NFxFlg=           0 DoJE=F BraDBF=F KetDBF=F FulRan=T
         wScrn=  0.000000 ICntrl=     600 IOpCl=  0 I1Cent=           0 NGrid=           0
         NMat0=    1 NMatS0=    406 NMatT0=    0 NMatD0=    1 NMtDS0=    0 NMtDT0=    0
 Petite list used in FoFCou.

 Cycle   1  Pass 1  IDiag  1:
 E= -113.096401278167    
 DIIS: error= 2.86D-04 at cycle   1 NSaved=   1.
 NSaved= 1 IEnMin= 1 EnMin= -113.096401278167     IErMin= 1 ErrMin= 2.86D-04
 ErrMax= 2.86D-04  0.00D+00 EMaxC= 1.00D-01 BMatC= 4.64D-06 BMatP= 4.64D-06
 IDIUse=3 WtCom= 9.97D-01 WtEn= 2.86D-03
 Coeff-Com:  0.100D+01
 Coeff-En:   0.100D+01
 Coeff:      0.100D+01
 Gap=     1.077 Goal=   None    Shift=    0.000
 RMSDP=1.05D-04 MaxDP=6.51D-04              OVMax= 7.49D-04

 Cycle   2  Pass 1  IDiag  1:
 E= -113.096404834875     Delta-E=       -0.000003556708 Rises=F Damp=F
 DIIS: error= 1.87D-04 at cycle   2 NSaved=   2.
 NSaved= 2 IEnMin= 2 EnMin= -113.096404834875     IErMin= 2 ErrMin= 1.87D-04
 ErrMax= 1.87D-04  0.00D+00 EMaxC= 1.00D-01 BMatC= 1.16D-06 BMatP= 4.64D-06
 IDIUse=3 WtCom= 9.98D-01 WtEn= 1.87D-03
 Coeff-Com:  0.291D+00 0.709D+00
 Coeff-En:   0.000D+00 0.100D+01
 Coeff:      0.290D+00 0.710D+00
 Gap=     0.370 Goal=   None    Shift=    0.000
 RMSDP=3.87D-05 MaxDP=4.03D-04 DE=-3.56D-06 OVMax= 4.78D-04

 Cycle   3  Pass 1  IDiag  1:
 E= -113.096405095514     Delta-E=       -0.000000260639 Rises=F Damp=F
 DIIS: error= 1.81D-04 at cycle   3 NSaved=   3.
 NSaved= 3 IEnMin= 3 EnMin= -113.096405095514     IErMin= 3 ErrMin= 1.81D-04
 ErrMax= 1.81D-04  0.00D+00 EMaxC= 1.00D-01 BMatC= 8.16D-07 BMatP= 1.16D-06
 IDIUse=3 WtCom= 9.98D-01 WtEn= 1.81D-03
 Coeff-Com:  0.841D-01 0.457D+00 0.459D+00
 Coeff-En:   0.000D+00 0.415D+00 0.585D+00
 Coeff:      0.839D-01 0.457D+00 0.459D+00
 Gap=     0.370 Goal=   None    Shift=    0.000
 RMSDP=2.27D-05 MaxDP=2.18D-04 DE=-2.61D-07 OVMax= 3.36D-04

 Cycle   4  Pass 1  IDiag  1:
 E= -113.096405648784     Delta-E=       -0.000000553270 Rises=F Damp=F
 DIIS: error= 5.88D-05 at cycle   4 NSaved=   4.
 NSaved= 4 IEnMin= 4 EnMin= -113.096405648784     IErMin= 4 ErrMin= 5.88D-05
 ErrMax= 5.88D-05  0.00D+00 EMaxC= 1.00D-01 BMatC= 6.42D-08 BMatP= 8.16D-07
 IDIUse=1 WtCom= 1.00D+00 WtEn= 0.00D+00
 Coeff-Com: -0.115D-01 0.897D-01 0.258D+00 0.664D+00
 Coeff:     -0.115D-01 0.897D-01 0.258D+00 0.664D+00
 Gap=     0.370 Goal=   None    Shift=    0.000
 RMSDP=6.78D-06 MaxDP=6.67D-05 DE=-5.53D-07 OVMax= 8.10D-05

 Cycle   5  Pass 1  IDiag  1:
 E= -113.096405703908     Delta-E=       -0.000000055125 Rises=F Damp=F
 DIIS: error= 6.01D-07 at cycle   5 NSaved=   5.
 NSaved= 5 IEnMin= 5 EnMin= -113.096405703908     IErMin= 5 ErrMin= 6.01D-07
 ErrMax= 6.01D-07  0.00D+00 EMaxC= 1.00D-01 BMatC= 1.15D-11 BMatP= 6.42D-08
 IDIUse=1 WtCom= 1.00D+00 WtEn= 0.00D+00
 Coeff-Com: -0.647D-03-0.167D-02 0.439D-02 0.190D-01 0.979D+00
 Coeff:     -0.647D-03-0.167D-02 0.439D-02 0.190D-01 0.979D+00
 Gap=     0.370 Goal=   None    Shift=    0.000
 RMSDP=2.79D-07 MaxDP=4.05D-06 DE=-5.51D-08 OVMax= 2.18D-06

 Cycle   6  Pass 1  IDiag  1:
 E= -113.096405703923     Delta-E=       -0.000000000014 Rises=F Damp=F
 DIIS: error= 1.14D-07 at cycle   6 NSaved=   6.
 NSaved= 6 IEnMin= 6 EnMin= -113.096405703923     IErMin= 6 ErrMin= 1.14D-07
 ErrMax= 1.14D-07  0.00D+00 EMaxC= 1.00D-01 BMatC= 5.37D-13 BMatP= 1.15D-11
 IDIUse=1 WtCom= 1.00D+00 WtEn= 0.00D+00
 Coeff-Com:  0.390D-04-0.139D-02-0.219D-02-0.572D-02 0.167D+00 0.842D+00
 Coeff:      0.390D-04-0.139D-02-0.219D-02-0.572D-02 0.167D+00 0.842D+00
 Gap=     0.370 Goal=   None    Shift=    0.000
 RMSDP=2.53D-08 MaxDP=3.19D-07 DE=-1.42D-11 OVMax= 2.38D-07

 Cycle   7  Pass 1  IDiag  1:
 E= -113.096405703923     Delta-E=        0.000000000000 Rises=F Damp=F
 DIIS: error= 9.33D-09 at cycle   7 NSaved=   7.
 NSaved= 7 IEnMin= 7 EnMin= -113.096405703923     IErMin= 7 ErrMin= 9.33D-09
 ErrMax= 9.33D-09  0.00D+00 EMaxC= 1.00D-01 BMatC= 2.22D-15 BMatP= 5.37D-13
 IDIUse=1 WtCom= 1.00D+00 WtEn= 0.00D+00
 Coeff-Com:  0.961D-06 0.331D-04-0.705D-05 0.103D-03-0.704D-02-0.131D-01
 Coeff-Com:  0.102D+01
 Coeff:      0.961D-06 0.331D-04-0.705D-05 0.103D-03-0.704D-02-0.131D-01
 Coeff:      0.102D+01
 Gap=     0.370 Goal=   None    Shift=    0.000
 RMSDP=1.85D-09 MaxDP=2.46D-08 DE=-1.99D-13 OVMax= 1.54D-08

 SCF Done:  E(RPBE1PBE) =  -113.096405704     A.U. after    7 cycles
            NFock=  7  Conv=0.19D-08     -V/T= 2.0060
 KE= 1.124270290517D+02 PE=-3.105571789866D+02 EE= 6.251706239054D+01
 Leave Link  502 at Sun Sep 13 20:18:04 2015, MaxMem=   268435456 cpu:         0.7
 (Enter /usr/local/research/Gaussian09/g09-revD.01/g09/l508.exe)
 QCSCF skips out because SCF is already converged.
 Leave Link  508 at Sun Sep 13 20:18:04 2015, MaxMem=   268435456 cpu:         0.0
 (Enter /usr/local/research/Gaussian09/g09-revD.01/g09/l701.exe)
 Compute integral first derivatives.
 ... and contract with generalized density number  0.
 R6Disp: Adding Grimme-D3(BJ) dispersion energy 1st derivatives to the gradient.
   4 Symmetry operations used in ECPInt.
 ECPInt:  NShTT=      78 NPrTT=     326 LenC2=      79 LenP2D=     310.
 LDataN:  DoStor=T MaxTD1= 5 Len=  102
 Leave Link  701 at Sun Sep 13 20:18:04 2015, MaxMem=   268435456 cpu:         0.5
 (Enter /usr/local/research/Gaussian09/g09-revD.01/g09/l702.exe)
 L702 exits ... SP integral derivatives will be done elsewhere.
 Leave Link  702 at Sun Sep 13 20:18:04 2015, MaxMem=   268435456 cpu:         0.0
 (Enter /usr/local/research/Gaussian09/g09-revD.01/g09/l703.exe)
 Compute integral first derivatives, UseDBF=F ICtDFT=           0.
 Integral derivatives from FoFJK, PRISM(SPDF).
 Calling FoFJK, ICntrl=      2127 FMM=F ISym2X=1 I1Cent= 0 IOpClX= 0 NMat=1 NMatS=1 NMatT=0.
 FoFJK:  IHMeth= 1 ICntrl=    2127 DoSepK=F KAlg= 0 I1Cent=   0 FoldK=F
 IRaf=         0 NMat=   1 IRICut=       1 DoRegI=T DoRafI=F ISym2E= 1.
 FoFCou: FMM=F IPFlag=           0 FMFlag=      100000 FMFlg1=         800
         NFxFlg=           0 DoJE=F BraDBF=F KetDBF=F FulRan=T
         wScrn=  0.000000 ICntrl=    2127 IOpCl=  0 I1Cent=           0 NGrid=           0
         NMat0=    1 NMatS0=      1 NMatT0=    0 NMatD0=    1 NMtDS0=    0 NMtDT0=    0
 Petite list used in FoFCou.
 Leave Link  703 at Sun Sep 13 20:18:04 2015, MaxMem=   268435456 cpu:         0.6
 (Enter /usr/local/research/Gaussian09/g09-revD.01/g09/l716.exe)
 Dipole        = 0.00000000D+00 0.00000000D+00 8.15515040D-02
 ***** Axes restored to original set *****
 -------------------------------------------------------------------
 Center     Atomic                   Forces (Hartrees/Bohr)
 Number     Number              X              Y              Z
 -------------------------------------------------------------------
      1        8           0.000021896    0.000000000    0.000000000
      2        6          -0.000021896    0.000000000    0.000000000
 -------------------------------------------------------------------
 Cartesian Forces:  Max     0.000021896 RMS     0.000012642
 Leave Link  716 at Sun Sep 13 20:18:05 2015, MaxMem=   268435456 cpu:         0.1
 (Enter /usr/local/research/Gaussian09/g09-revD.01/g09/l103.exe)

 GradGradGradGradGradGradGradGradGradGradGradGradGradGradGradGradGradGrad
 Berny optimization.
 Using GEDIIS/GDIIS optimizer.
 Red2BG is reusing G-inverse.
 Internal  Forces:  Max     0.000021896 RMS     0.000021896
 Search for a local minimum.
 Step number   4 out of a maximum of   20
 All quantities printed in internal units (Hartrees-Bohrs-Radians)
 RMS Force = .21896D-04 SwitMx=.10000D-02 MixMth= 2
 Mixed Optimization -- En-DIIS/RFO-DIIS
 Update second derivatives using D2CorX and points    3    4
 DE= -1.43D-05 DEPred=-1.16D-05 R= 1.23D+00
 TightC=F SS=  1.41D+00  RLast= 4.64D-03 DXNew= 7.6390D-01 1.3915D-02
 Trust test= 1.23D+00 RLast= 4.64D-03 DXMaxT set to 4.54D-01
 The second derivative matrix:
                          R1
           R1           1.33152
 ITU=  1  1
 Use linear search instead of GDIIS.
     Eigenvalues ---    1.33152
 RFO step:  Lambda= 0.00000000D+00 EMin= 1.33151910D+00
 Quartic linear search produced a step of -0.00352.
 Iteration  1 RMS(Cart)=  0.00001153 RMS(Int)=  0.00000000
 Iteration  2 RMS(Cart)=  0.00000000 RMS(Int)=  0.00000000
 ITry= 1 IFail=0 DXMaxC= 8.15D-06 DCOld= 1.00D+10 DXMaxT= 4.54D-01 DXLimC= 3.00D+00 Rises=F
 ClnCor:  largest displacement from symmetrization is 0.00D+00 for atom     0.
 Variable       Old X    -DE/DX   Delta X   Delta X   Delta X     New X
                                 (Linear)    (Quad)   (Total)
    R1        2.13172   0.00002   0.00002   0.00000   0.00002   2.13174
         Item               Value     Threshold  Converged?
 Maximum Force            0.000022     0.000450     YES
 RMS     Force            0.000022     0.000300     YES
 Maximum Displacement     0.000008     0.001800     YES
 RMS     Displacement     0.000012     0.001200     YES
 Predicted change in Energy=-1.800267D-10
 Optimization completed.
    -- Stationary point found.
                           ----------------------------
                           !   Optimized Parameters   !
                           ! (Angstroms and Degrees)  !
 --------------------------                            --------------------------
 ! Name  Definition              Value          Derivative Info.                !
 --------------------------------------------------------------------------------
 ! R1    R(1,2)                  1.1281         -DE/DX =    0.0                 !
 --------------------------------------------------------------------------------
 Lowest energy point so far.  Saving SCF results.
 GradGradGradGradGradGradGradGradGradGradGradGradGradGradGradGradGradGrad

 Largest change from initial coordinates is atom    2       0.073 Angstoms.
 Leave Link  103 at Sun Sep 13 20:18:05 2015, MaxMem=   268435456 cpu:         0.0
 (Enter /usr/local/research/Gaussian09/g09-revD.01/g09/l202.exe)
                          Input orientation:                          
 ---------------------------------------------------------------------
 Center     Atomic      Atomic             Coordinates (Angstroms)
 Number     Number       Type             X           Y           Z
 ---------------------------------------------------------------------
      1          8           0        1.820786    1.402027    0.000000
      2          6           0        0.692728    1.402027    0.000000
 ---------------------------------------------------------------------
 Stoichiometry    CO
 Framework group  C*V[C*(CO)]
 Deg. of freedom     1
 Full point group                 C*V     NOp   4
 RotChk:  IX=0 Diff= 0.00D+00
 Largest Abelian subgroup         C2V     NOp   4
 Largest concise Abelian subgroup C1      NOp   1
                         Standard orientation:                         
 ---------------------------------------------------------------------
 Center     Atomic      Atomic             Coordinates (Angstroms)
 Number     Number       Type             X           Y           Z
 ---------------------------------------------------------------------
      1          8           0        0.000000    0.000000    0.483453
      2          6           0        0.000000    0.000000   -0.644605
 ---------------------------------------------------------------------
 Rotational constants (GHZ):      0.0000000     57.9255609     57.9255609
 Leave Link  202 at Sun Sep 13 20:18:05 2015, MaxMem=   268435456 cpu:         0.0
 (Enter /usr/local/research/Gaussian09/g09-revD.01/g09/l601.exe)
 Copying SCF densities to generalized density rwf, IOpCl= 0 IROHF=0.

 **********************************************************************

            Population analysis using the SCF density.

 **********************************************************************

 Orbital symmetries:
       Occupied  (SG) (SG) (SG) (SG) (PI) (PI) (SG)
       Virtual   (PI) (PI) (SG) (SG) (PI) (PI) (SG) (SG) (PI) (PI)
                 (SG) (DLTA) (DLTA) (PI) (PI) (SG) (DLTA) (DLTA)
                 (PI) (PI) (SG)
 The electronic state is 1-SG.
 Alpha  occ. eigenvalues --  -19.32119 -10.35037  -1.18494  -0.58947  -0.49457
 Alpha  occ. eigenvalues --   -0.49457  -0.38766
 Alpha virt. eigenvalues --   -0.01809  -0.01809   0.23333   0.41580   0.47624
 Alpha virt. eigenvalues --    0.47624   0.75046   0.86242   0.97015   0.97015
 Alpha virt. eigenvalues --    1.26055   1.61127   1.61128   1.67847   1.67847
 Alpha virt. eigenvalues --    2.42344   2.60087   2.60087   3.17773   3.17773
 Alpha virt. eigenvalues --    3.60170
          Condensed to atoms (all electrons):
               1          2
     1  O    7.374992   0.657575
     2  C    0.657575   5.309857
 Mulliken charges:
               1
     1  O   -0.032567
     2  C    0.032567
 Sum of Mulliken charges =   0.00000
 Mulliken charges with hydrogens summed into heavy atoms:
               1
     1  O   -0.032567
     2  C    0.032567
 Electronic spatial extent (au):  <R**2>=             39.6593
 Charge=              0.0000 electrons
 Dipole moment (field-independent basis, Debye):
    X=              0.0000    Y=              0.0000    Z=              0.2073  Tot=              0.2073
 Quadrupole moment (field-independent basis, Debye-Ang):
   XX=            -10.0495   YY=            -10.0495   ZZ=            -12.2881
   XY=              0.0000   XZ=              0.0000   YZ=              0.0000
 Traceless Quadrupole moment (field-independent basis, Debye-Ang):
[...]
                 (SG) (DLTA) (DLTA) (PI) (PI) (SG) (DLTA) (DLTA)
                 (PI) (PI) (SG)
 The electronic state of the initial guess is 1-SG.
 Leave Link  401 at Sun Sep 13 20:18:06 2015, MaxMem=   268435456 cpu:         0.2
 (Enter /usr/local/research/Gaussian09/g09-revD.01/g09/l502.exe)
 Closed shell SCF:
 Using DIIS extrapolation, IDIIS=  1040.
 Integral symmetry usage will be decided dynamically.
 Keep R1 ints in memory in symmetry-blocked form, NReq=953401.
 IVT=        9094 IEndB=        9094 NGot=   268435456 MDV=   268401854
 LenX=   268401854 LenY=   268400513
 Requested convergence on RMS density matrix=1.00D-08 within  64 cycles.
 Requested convergence on MAX density matrix=1.00D-06.
 Requested convergence on             energy=1.00D-06.
 No special actions if energy rises.
 FoFCou: FMM=F IPFlag=           0 FMFlag=           0 FMFlg1=           0
         NFxFlg=           0 DoJE=F BraDBF=F KetDBF=F FulRan=T
         wScrn=  0.000000 ICntrl=     600 IOpCl=  0 I1Cent=           0 NGrid=           0
         NMat0=    1 NMatS0=    406 NMatT0=    0 NMatD0=    1 NMtDS0=    0 NMtDT0=    0
 Petite list used in FoFCou.

 Cycle   1  Pass 1  IDiag  1:
 E= -113.096405703923    
 DIIS: error= 5.31D-10 at cycle   1 NSaved=   1.
 NSaved= 1 IEnMin= 1 EnMin= -113.096405703923     IErMin= 1 ErrMin= 5.31D-10
 ErrMax= 5.31D-10  0.00D+00 EMaxC= 1.00D-01 BMatC= 7.40D-18 BMatP= 7.40D-18
 IDIUse=1 WtCom= 1.00D+00 WtEn= 0.00D+00
 Coeff-Com:  0.100D+01
 Coeff:      0.100D+01
 Gap=     0.370 Goal=   None    Shift=    0.000
 RMSDP=1.63D-10 MaxDP=1.65D-09              OVMax= 2.64D-09

 SCF Done:  E(RPBE1PBE) =  -113.096405704     A.U. after    1 cycles
            NFock=  1  Conv=0.16D-09     -V/T= 2.0060
 KE= 1.124270290215D+02 PE=-3.105571790942D+02 EE= 6.251706252846D+01
 Leave Link  502 at Sun Sep 13 20:18:07 2015, MaxMem=   268435456 cpu:         0.5
 (Enter /usr/local/research/Gaussian09/g09-revD.01/g09/l508.exe)
 QCSCF skips out because SCF is already converged.
 Leave Link  508 at Sun Sep 13 20:18:07 2015, MaxMem=   268435456 cpu:         0.0
 (Enter /usr/local/research/Gaussian09/g09-revD.01/g09/l801.exe)
 DoSCS=F DFT=T ScalE2(SS,OS)=  1.000000  1.000000
 Range of M.O.s used for correlation:     1    28
 NBasis=    28 NAE=     7 NBE=     7 NFC=     0 NFV=     0
 NROrb=     28 NOA=     7 NOB=     7 NVA=    21 NVB=    21
 Leave Link  801 at Sun Sep 13 20:18:07 2015, MaxMem=   268435456 cpu:         0.0
 (Enter /usr/local/research/Gaussian09/g09-revD.01/g09/l1101.exe)
 Using compressed storage, NAtomX=     2.
 Will process      3 centers per pass.
   4 Symmetry operations used in ECPInt.
 ECPInt:  NShTT=      78 NPrTT=     326 LenC2=      79 LenP2D=     310.
 LDataN:  DoStor=T MaxTD1= 5 Len=  102
 R6Disp: Adding Grimme-D3(BJ) dispersion energy 1st derivatives to the gradient.
 Leave Link 1101 at Sun Sep 13 20:18:07 2015, MaxMem=   268435456 cpu:         0.5
 (Enter /usr/local/research/Gaussian09/g09-revD.01/g09/l1102.exe)
 Symmetrizing basis deriv contribution to polar:
 IMax=3 JMax=2 DiffMx= 0.00D+00
 Leave Link 1102 at Sun Sep 13 20:18:07 2015, MaxMem=   268435456 cpu:         0.1
 (Enter /usr/local/research/Gaussian09/g09-revD.01/g09/l1110.exe)
 Forming Gx(P) for the SCF density, NAtomX=     2.
 Integral derivatives from FoFJK, PRISM(SPDF).
 Do as many integral derivatives as possible in FoFJK.
 G2DrvN: MDV=     268435336.
 G2DrvN: will do     3 centers at a time, making    1 passes.
 Calling FoFCou, ICntrl=  3107 FMM=F I1Cent=   0 AccDes= 0.00D+00.
 FoFJK:  IHMeth= 1 ICntrl=    3107 DoSepK=F KAlg= 0 I1Cent=   0 FoldK=F
 IRaf=         0 NMat=   1 IRICut=       1 DoRegI=T DoRafI=F ISym2E= 1.
 FoFCou: FMM=F IPFlag=           0 FMFlag=      100000 FMFlg1=           0
         NFxFlg=           0 DoJE=F BraDBF=F KetDBF=F FulRan=T
         wScrn=  0.000000 ICntrl=    3107 IOpCl=  0 I1Cent=           0 NGrid=           0
         NMat0=    1 NMatS0=      1 NMatT0=    0 NMatD0=    1 NMtDS0=    0 NMtDT0=    0
 Petite list used in FoFCou.
 End of G2Drv F.D. properties file   721 does not exist.
 End of G2Drv F.D. properties file   722 does not exist.
 End of G2Drv F.D. properties file   788 does not exist.
 Leave Link 1110 at Sun Sep 13 20:18:07 2015, MaxMem=   268435456 cpu:         0.7
 (Enter /usr/local/research/Gaussian09/g09-revD.01/g09/l1002.exe)
 Minotr:  Closed shell wavefunction.
          IDoAtm=11
          Direct CPHF calculation.
          Differentiating once with respect to electric field.
                with respect to dipole field.
          Differentiating once with respect to nuclear coordinates.
          Using symmetry in CPHF.
          Requested convergence is 1.0D-08 RMS, and 1.0D-07 maximum.
          Secondary convergence is 1.0D-12 RMS, and 1.0D-12 maximum.
          NewPWx=T KeepS1=F KeepF1=F KeepIn=T MapXYZ=F SortEE=F KeepMc=T.
          MDV=     268435404 using IRadAn=       2.
 Generate precomputed XC quadrature information.
 Keep R1 ints in memory in symmetry-blocked form, NReq=943586.
 FoFCou: FMM=F IPFlag=           0 FMFlag=           0 FMFlg1=           0
         NFxFlg=           0 DoJE=F BraDBF=F KetDBF=F FulRan=T
         wScrn=  0.000000 ICntrl=     600 IOpCl=  0 I1Cent=           0 NGrid=           0
         NMat0=    1 NMatS0=    406 NMatT0=    0 NMatD0=    1 NMtDS0=    0 NMtDT0=    0
 Petite list used in FoFCou.
          Solving linear equations simultaneously, MaxMat=       0.
          There are     9 degrees of freedom in the 1st order CPHF.  IDoFFX=6 NUNeed=     3.
      6 vectors produced by pass  0 Test12= 1.63D-15 1.11D-08 XBig12= 9.94D+00 1.99D+00.
 AX will form     6 AO Fock derivatives at one time.
      6 vectors produced by pass  1 Test12= 1.63D-15 1.11D-08 XBig12= 5.32D+00 1.37D+00.
      6 vectors produced by pass  2 Test12= 1.63D-15 1.11D-08 XBig12= 3.70D-02 6.77D-02.
      6 vectors produced by pass  3 Test12= 1.63D-15 1.11D-08 XBig12= 5.90D-04 1.66D-02.
      6 vectors produced by pass  4 Test12= 1.63D-15 1.11D-08 XBig12= 4.30D-07 2.57D-04.
      6 vectors produced by pass  5 Test12= 1.63D-15 1.11D-08 XBig12= 7.57D-10 9.96D-06.
      1 vectors produced by pass  6 Test12= 1.63D-15 1.11D-08 XBig12= 4.04D-13 2.81D-07.
 InvSVY:  IOpt=1 It=  1 EMax= 2.22D-16
 Solved reduced A of dimension    37 with     6 vectors.
 FullF1:  Do perturbations    1 to     3.
 Isotropic polarizability for W=    0.000000        9.94 Bohr**3.
 End of Minotr F.D. properties file   721 does not exist.
 End of Minotr F.D. properties file   722 does not exist.
 End of Minotr F.D. properties file   788 does not exist.
 Leave Link 1002 at Sun Sep 13 20:18:08 2015, MaxMem=   268435456 cpu:         0.9
 (Enter /usr/local/research/Gaussian09/g09-revD.01/g09/l601.exe)
 Copying SCF densities to generalized density rwf, IOpCl= 0 IROHF=0.

 **********************************************************************

            Population analysis using the SCF density.

 **********************************************************************

 Orbital symmetries:
       Occupied  (SG) (SG) (SG) (SG) (PI) (PI) (SG)
       Virtual   (PI) (PI) (SG) (SG) (PI) (PI) (SG) (SG) (PI) (PI)
                 (SG) (DLTA) (DLTA) (PI) (PI) (SG) (DLTA) (DLTA)
                 (PI) (PI) (SG)
 The electronic state is 1-SG.
 Alpha  occ. eigenvalues --  -19.32119 -10.35037  -1.18494  -0.58947  -0.49457
 Alpha  occ. eigenvalues --   -0.49457  -0.38766
 Alpha virt. eigenvalues --   -0.01809  -0.01809   0.23333   0.41580   0.47624
 Alpha virt. eigenvalues --    0.47624   0.75046   0.86242   0.97015   0.97015
 Alpha virt. eigenvalues --    1.26055   1.61127   1.61128   1.67847   1.67847
 Alpha virt. eigenvalues --    2.42344   2.60087   2.60087   3.17773   3.17773
 Alpha virt. eigenvalues --    3.60170
          Condensed to atoms (all electrons):
               1          2
     1  O    7.374992   0.657575
     2  C    0.657575   5.309857
 Mulliken charges:
               1
     1  O   -0.032567
     2  C    0.032567
 Sum of Mulliken charges =   0.00000
 Mulliken charges with hydrogens summed into heavy atoms:
               1
     1  O   -0.032567
     2  C    0.032567
 APT charges:
               1
     1  O   -0.223053
     2  C    0.223053
 Sum of APT charges =   0.00000
 APT charges with hydrogens summed into heavy atoms:
               1
     1  O   -0.223053
     2  C    0.223053
 Electronic spatial extent (au):  <R**2>=             39.6593
 Charge=              0.0000 electrons
 Dipole moment (field-independent basis, Debye):
    X=              0.0000    Y=              0.0000    Z=              0.2073  Tot=              0.2073
 Quadrupole moment (field-independent basis, Debye-Ang):
   XX=            -10.0495   YY=            -10.0495   ZZ=            -12.2881
   XY=              0.0000   XZ=              0.0000   YZ=              0.0000
 Traceless Quadrupole moment (field-independent basis, Debye-Ang):
   XX=              0.7462   YY=              0.7462   ZZ=             -1.4924
   XY=              0.0000   XZ=              0.0000   YZ=              0.0000
 Octapole moment (field-independent basis, Debye-Ang**2):
  XXX=              0.0000  YYY=              0.0000  ZZZ=              6.5483  XYY=              0.0000
  XXY=              0.0000  XXZ=              1.3053  XZZ=              0.0000  YZZ=              0.0000
  YYZ=              1.3053  XYZ=              0.0000
 Hexadecapole moment (field-independent basis, Debye-Ang**3):
 XXXX=             -8.4128 YYYY=             -8.4128 ZZZZ=            -36.0126 XXXY=              0.0000
 XXXZ=              0.0000 YYYX=              0.0000 YYYZ=              0.0000 ZZZX=              0.0000
 ZZZY=              0.0000 XXYY=             -2.8043 XXZZ=             -6.8627 YYZZ=             -6.8627
 XXYZ=              0.0000 YYXZ=              0.0000 ZZXY=              0.0000
 N-N= 2.251668184037D+01 E-N=-3.105571790601D+02  KE= 1.124270290215D+02
 Symmetry A1   KE= 1.042802678693D+02
 Symmetry A2   KE= 2.615695681003D-52
 Symmetry B1   KE= 4.073380576095D+00
 Symmetry B2   KE= 4.073380576095D+00
  Exact polarizability:   8.487   0.000   8.487   0.000   0.000  12.837
 Approx polarizability:  10.823   0.000  10.823   0.000   0.000  21.763
 No NMR shielding tensors so no spin-rotation constants.
 Leave Link  601 at Sun Sep 13 20:18:08 2015, MaxMem=   268435456 cpu:         0.5
 (Enter /usr/local/research/Gaussian09/g09-revD.01/g09/l701.exe)
 Compute integral second derivatives.
 ... and contract with generalized density number  0.
 R6Disp: Adding Grimme-D3(BJ) dispersion energy 2nd derivatives to the Hessian.
   4 Symmetry operations used in ECPInt.
 ECPInt:  NShTT=      78 NPrTT=     326 LenC2=      79 LenP2D=     310.
 LDataN:  DoStor=T MaxTD1= 6 Len=  172
 Leave Link  701 at Sun Sep 13 20:18:08 2015, MaxMem=   268435456 cpu:         0.7
 (Enter /usr/local/research/Gaussian09/g09-revD.01/g09/l702.exe)
 L702 exits ... SP integral derivatives will be done elsewhere.
 Leave Link  702 at Sun Sep 13 20:18:08 2015, MaxMem=   268435456 cpu:         0.1
 (Enter /usr/local/research/Gaussian09/g09-revD.01/g09/l703.exe)
 Compute integral second derivatives, UseDBF=F ICtDFT=           0.
 Integral derivatives from FoFJK, PRISM(SPDF).
 Calling FoFJK, ICntrl=    100127 FMM=F ISym2X=1 I1Cent= 0 IOpClX= 0 NMat=1 NMatS=1 NMatT=0.
 FoFJK:  IHMeth= 1 ICntrl=  100127 DoSepK=F KAlg= 0 I1Cent=   0 FoldK=F
 IRaf=         0 NMat=   1 IRICut=       1 DoRegI=T DoRafI=F ISym2E= 1.
 FoFCou: FMM=F IPFlag=           0 FMFlag=      100000 FMFlg1=         800
         NFxFlg=           0 DoJE=F BraDBF=F KetDBF=F FulRan=T
         wScrn=  0.000000 ICntrl=  100127 IOpCl=  0 I1Cent=           0 NGrid=           0
         NMat0=    1 NMatS0=      1 NMatT0=    0 NMatD0=    1 NMtDS0=    0 NMtDT0=    0
 Petite list used in FoFCou.
 Leave Link  703 at Sun Sep 13 20:18:09 2015, MaxMem=   268435456 cpu:         1.1
 (Enter /usr/local/research/Gaussian09/g09-revD.01/g09/l716.exe)
 Dipole        = 0.00000000D+00 0.00000000D+00 8.15515262D-02
 Polarizability= 8.48745317D+00-7.26280914D-11 8.48745317D+00
                 4.21293867D-11 5.60703020D-11 1.28370695D+01
 Full mass-weighted force constant matrix:
 Low frequencies ---   -0.0022   -0.0022   -0.0019   16.8794   16.8794 2275.0525
 Diagonal vibrational polarizability:
        0.0000000       0.0000000       0.4110205
 Harmonic frequencies (cm**-1), IR intensities (KM/Mole), Raman scattering
 activities (A**4/AMU), depolarization ratios for plane and unpolarized
 incident light, reduced masses (AMU), force constants (mDyne/A),
 and normal coordinates:
                      1
                     SG
 Frequencies --   2275.0525
 Red. masses --     13.4388
 Frc consts  --     40.9819
 IR Inten    --     79.0521
  Atom  AN      X      Y      Z
     1   8     0.00   0.00   0.60
     2   6     0.00   0.00  -0.80

 -------------------
 - Thermochemistry -
 -------------------
 Temperature   298.150 Kelvin.  Pressure   1.00000 Atm.
 Atom     1 has atomic number  8 and mass  15.99491
 Atom     2 has atomic number  6 and mass  12.00000
 Molecular mass:    27.99491 amu.
 Principal axes and moments of inertia in atomic units:
                           1         2         3
     Eigenvalues --     0.00000  31.15621  31.15621
           X            0.00000   0.00000   1.00000
           Y            0.00000   1.00000   0.00000
           Z            1.00000   0.00000   0.00000
 This molecule is a prolate symmetric top.
 Rotational symmetry number  1.
 Rotational temperature (Kelvin)      2.77999
 Rotational constant (GHZ):          57.925561
 Zero-point vibrational energy      13607.8 (Joules/Mol)
                                    3.25235 (Kcal/Mol)
 Vibrational temperatures:   3273.29
          (Kelvin)
 
 Zero-point correction=                           0.005183 (Hartree/Particle)
 Thermal correction to Energy=                    0.007544
 Thermal correction to Enthalpy=                  0.008488
 Thermal correction to Gibbs Free Energy=        -0.013939
 Sum of electronic and zero-point Energies=           -113.091223
 Sum of electronic and thermal Energies=              -113.088862
 Sum of electronic and thermal Enthalpies=            -113.087918
 Sum of electronic and thermal Free Energies=         -113.110345
 
                     E (Thermal)             CV                S
                      KCal/Mol        Cal/Mol-Kelvin    Cal/Mol-Kelvin
 Total                    4.734              4.972             47.201
 Electronic               0.000              0.000              0.000
 Translational            0.889              2.981             35.923
 Rotational               0.592              1.987             11.278
 Vibrational              3.252              0.004              0.000
                       Q            Log10(Q)             Ln(Q)
 Total Bot       0.257921D+07          6.411487         14.762994
 Total V=0       0.624416D+09          8.795474         20.252327
 Vib (Bot)       0.413067D-02         -2.383979         -5.489316
 Vib (V=0)       0.100002D+01          0.000007          0.000017
 Electronic      0.100000D+01          0.000000          0.000000
 Translational   0.582202D+07          6.765074         15.577158
 Rotational      0.107249D+03          2.030392          4.675151
 ***** Axes restored to original set *****
 -------------------------------------------------------------------
 Center     Atomic                   Forces (Hartrees/Bohr)
 Number     Number              X              Y              Z
 -------------------------------------------------------------------
      1        8           0.000021892    0.000000000    0.000000000
      2        6          -0.000021892    0.000000000    0.000000000
 -------------------------------------------------------------------
 Cartesian Forces:  Max     0.000021892 RMS     0.000012640
 Force constants in Cartesian coordinates: 
                1             2             3             4             5 
      1  0.134295D+01
      2  0.000000D+00  0.739251D-04
      3  0.000000D+00  0.000000D+00  0.739251D-04
      4 -0.134295D+01  0.000000D+00  0.000000D+00  0.134295D+01
      5  0.000000D+00 -0.739251D-04  0.000000D+00  0.000000D+00  0.739251D-04
      6  0.000000D+00  0.000000D+00 -0.739251D-04  0.000000D+00  0.000000D+00
                6 
      6  0.739251D-04
 FormGI is forming the generalized inverse of G from B-inverse, IUseBI=4.
 Force constants in internal coordinates: 
                1 
      1  0.134295D+01
 Leave Link  716 at Sun Sep 13 20:18:09 2015, MaxMem=   268435456 cpu:         0.1
 (Enter /usr/local/research/Gaussian09/g09-revD.01/g09/l103.exe)

 GradGradGradGradGradGradGradGradGradGradGradGradGradGradGradGradGradGrad
 Berny optimization.
 Red2BG is reusing G-inverse.
 Internal  Forces:  Max     0.000021892 RMS     0.000021892
 Search for a local minimum.
 Step number   1 out of a maximum of    2
 All quantities printed in internal units (Hartrees-Bohrs-Radians)
 Second derivative matrix not updated -- analytic derivatives used.
 The second derivative matrix:
                          R1
           R1           1.34295
 ITU=  0
     Eigenvalues ---    1.34295
 Angle between quadratic step and forces=   0.00 degrees.
 Linear search not attempted -- first point.
 Iteration  1 RMS(Cart)=  0.00001153 RMS(Int)=  0.00000000
 Iteration  2 RMS(Cart)=  0.00000000 RMS(Int)=  0.00000000
 ITry= 1 IFail=0 DXMaxC= 8.15D-06 DCOld= 1.00D+10 DXMaxT= 3.00D-01 DXLimC= 3.00D+00 Rises=F
 ClnCor:  largest displacement from symmetrization is 0.00D+00 for atom     0.
 Variable       Old X    -DE/DX   Delta X   Delta X   Delta X     New X
                                 (Linear)    (Quad)   (Total)
    R1        2.13172   0.00002   0.00000   0.00002   0.00002   2.13174
         Item               Value     Threshold  Converged?
 Maximum Force            0.000022     0.000450     YES
 RMS     Force            0.000022     0.000300     YES
 Maximum Displacement     0.000008     0.001800     YES
 RMS     Displacement     0.000012     0.001200     YES
 Predicted change in Energy=-1.784409D-10
 Optimization completed.
    -- Stationary point found.
                           ----------------------------
                           !   Optimized Parameters   !
                           ! (Angstroms and Degrees)  !
 --------------------------                            --------------------------
 ! Name  Definition              Value          Derivative Info.                !
 --------------------------------------------------------------------------------
 ! R1    R(1,2)                  1.1281         -DE/DX =    0.0                 !
 --------------------------------------------------------------------------------
 GradGradGradGradGradGradGradGradGradGradGradGradGradGradGradGradGradGrad

 Leave Link  103 at Sun Sep 13 20:18:09 2015, MaxMem=   268435456 cpu:         0.0
 (Enter /usr/local/research/Gaussian09/g09-revD.01/g09/l9999.exe)
 1\1\GINC-HEISENBERG004\Freq\RPBE1PBE\def2SVP\C1O1\SAVILL\13-Sep-2015\0
 \\#P Geom=AllCheck Guess=TCheck SCRF=Check GenChk RPBE1PBE/def2SVP Fre
 q\\-- "CO Optimisation mkII" --\\0,1\O,1.8207856913,1.40202701,0.\C,0.
 6927276087,1.40202701,0.\\Version=EM64L-G09RevD.01\State=1-SG\HF=-113.
 0964057\RMSD=1.633e-10\RMSF=1.264e-05\ZeroPoint=0.005183\Thermal=0.007
 5436\Dipole=0.0815515,0.,0.\DipoleDeriv=-0.7456293,0.,0.,0.,0.0382356,
 0.,0.,0.,0.0382356,0.7456293,0.,0.,0.,-0.0382356,0.,0.,0.,-0.0382356\P
 olar=12.8370695,0.,8.4874532,0.,0.,8.4874532\PG=C*V [C*(C1O1)]\NImag=0
 \\1.34294528,0.,0.00007393,0.,0.,0.00007393,-1.34294528,0.,0.,1.342945
 28,0.,-0.00007393,0.,0.,0.00007393,0.,0.,-0.00007393,0.,0.,0.00007393\
 \-0.00002189,0.,0.,0.00002189,0.,0.\\\@


 IT IS BY LOGIC THAT WE PROVE, BUT BY INTUITION THAT WE DISCOVER.
     -- J.H.POINCARE (1854-1912)
 Job cpu time:       0 days  0 hours  0 minutes  7.0 seconds.
 File lengths (MBytes):  RWF=      5 Int=      0 D2E=      0 Chk=      1 Scr=      1
 Normal termination of Gaussian 09 at Sun Sep 13 20:18:09 2015.
