 Entering Gaussian System, Link 0=g09
 Initial command:
 /usr/local/research/Gaussian09/g09-revD.01/g09/l1.exe "/scratch/lein/Gau-7362.inp" -scrdir="/scratch/lein/"
 Entering Link 1 = /usr/local/research/Gaussian09/g09-revD.01/g09/l1.exe PID=      7365.
  
 Copyright (c) 1988,1990,1992,1993,1995,1998,2003,2009,2013,
            Gaussian, Inc.  All Rights Reserved.
  
 This is part of the Gaussian(R) 09 program.  It is based on
 the Gaussian(R) 03 system (copyright 2003, Gaussian, Inc.),
 the Gaussian(R) 98 system (copyright 1998, Gaussian, Inc.),
 the Gaussian(R) 94 system (copyright 1995, Gaussian, Inc.),
 the Gaussian 92(TM) system (copyright 1992, Gaussian, Inc.),
 the Gaussian 90(TM) system (copyright 1990, Gaussian, Inc.),
 the Gaussian 88(TM) system (copyright 1988, Gaussian, Inc.),
 the Gaussian 86(TM) system (copyright 1986, Carnegie Mellon
 University), and the Gaussian 82(TM) system (copyright 1983,
 Carnegie Mellon University). Gaussian is a federally registered
 trademark of Gaussian, Inc.
  
 This software contains proprietary and confidential information,
 including trade secrets, belonging to Gaussian, Inc.
  
 This software is provided under written license and may be
 used, copied, transmitted, or stored only in accord with that
 written license.
  
 The following legend is applicable only to US Government
 contracts under FAR:
  
                    RESTRICTED RIGHTS LEGEND
  
 Use, reproduction and disclosure by the US Government is
 subject to restrictions as set forth in subparagraphs (a)
 and (c) of the Commercial Computer Software - Restricted
 Rights clause in FAR 52.227-19.
  
 Gaussian, Inc.
 340 Quinnipiac St., Bldg. 40, Wallingford CT 06492
  
  
 ---------------------------------------------------------------
 Warning -- This program may not be used in any manner that
 competes with the business of Gaussian, Inc. or will provide
 assistance to any competitor of Gaussian, Inc.  The licensee
 of this program is prohibited from giving any competitor of
 Gaussian, Inc. access to this program.  By using this program,
 the user acknowledges that Gaussian, Inc. is engaged in the
 business of creating and licensing software in the field of
 computational chemistry and represents and warrants to the
 licensee that it is not a competitor of Gaussian, Inc. and that
 it will not use this program in any manner prohibited above.
 ---------------------------------------------------------------
  

 Cite this work as:
 Gaussian 09, Revision D.01,
 M. J. Frisch, G. W. Trucks, H. B. Schlegel, G. E. Scuseria, 
 M. A. Robb, J. R. Cheeseman, G. Scalmani, V. Barone, B. Mennucci, 
 G. A. Petersson, H. Nakatsuji, M. Caricato, X. Li, H. P. Hratchian, 
 A. F. Izmaylov, J. Bloino, G. Zheng, J. L. Sonnenberg, M. Hada, 
 M. Ehara, K. Toyota, R. Fukuda, J. Hasegawa, M. Ishida, T. Nakajima, 
 Y. Honda, O. Kitao, H. Nakai, T. Vreven, J. A. Montgomery, Jr., 
 J. E. Peralta, F. Ogliaro, M. Bearpark, J. J. Heyd, E. Brothers, 
 K. N. Kudin, V. N. Staroverov, T. Keith, R. Kobayashi, J. Normand, 
 K. Raghavachari, A. Rendell, J. C. Burant, S. S. Iyengar, J. Tomasi, 
 M. Cossi, N. Rega, J. M. Millam, M. Klene, J. E. Knox, J. B. Cross, 
 V. Bakken, C. Adamo, J. Jaramillo, R. Gomperts, R. E. Stratmann, 
 O. Yazyev, A. J. Austin, R. Cammi, C. Pomelli, J. W. Ochterski, 
 R. L. Martin, K. Morokuma, V. G. Zakrzewski, G. A. Voth, 
 P. Salvador, J. J. Dannenberg, S. Dapprich, A. D. Daniels, 
 O. Farkas, J. B. Foresman, J. V. Ortiz, J. Cioslowski, 
 and D. J. Fox, Gaussian, Inc., Wallingford CT, 2013.
 
 ******************************************
 Gaussian 09:  EM64L-G09RevD.01 24-Apr-2013
                18-Mar-2015 
 ******************************************
 %chk=g09-ethane.chk
 ----------------------------------------------------------------------
 #p pbe1pbe def2svp opt freq pop(hirshfeld) density=current iop(7/33=1)
  iop(6/80=1)
 ----------------------------------------------------------------------
 1/14=-1,18=20,19=15,26=3,38=1/1,3;
 2/9=110,12=2,17=6,18=5,40=1/2;
 3/5=43,7=101,11=2,16=1,25=1,30=1,71=1,74=-13/1,2,3;
 4//1;
 5/5=2,38=5/2;
 6/7=2,8=2,9=2,10=2,22=-1,28=1,79=1,80=1/1;
 7/33=1/1,2,3,16;
 1/14=-1,18=20,19=15,26=3/3(2);
 2/9=110/2;
 99//99;
 2/9=110/2;
 3/5=43,7=101,11=2,16=1,25=1,30=1,71=1,74=-13/1,2,3;
 4/5=5,16=3,69=1/1;
 5/5=2,38=5/2;
 7/33=1/1,2,3,16;
 1/14=-1,18=20,19=15,26=3/3(-5);
 2/9=110/2;
 6/7=2,8=2,9=2,10=2,19=2,22=-1,28=1,79=1,80=1/1;
 99/9=1/99;
 Leave Link    1 at Wed Mar 18 11:27:47 2015, MaxMem=           0 cpu:         0.1
 (Enter /usr/local/research/Gaussian09/g09-revD.01/g09/l101.exe)
 ------------
 -- Ethane --
 ------------
 Symbolic Z-matrix:
 Charge =  0 Multiplicity = 1
 C                    -0.63927  -0.00761   0. 
 H                    -0.28262  -1.01642   0. 
 H                    -0.2826    0.49679  -0.87365 
 H                    -1.70927  -0.0076    0. 
 C                    -0.12593   0.71835   1.2574 
 H                     0.94407   0.71816   1.2575 
 H                    -0.48242   1.72721   1.25731 
 H                    -0.48276   0.21406   2.13106 
 
 NAtoms=      8 NQM=        8 NQMF=       0 NMMI=      0 NMMIF=      0
                NMic=       0 NMicF=      0.
                    Isotopes and Nuclear Properties:
 (Nuclear quadrupole moments (NQMom) in fm**2, nuclear magnetic moments (NMagM)
  in nuclear magnetons)

  Atom         1           2           3           4           5           6           7           8
 IAtWgt=          12           1           1           1          12           1           1           1
 AtmWgt=  12.0000000   1.0078250   1.0078250   1.0078250  12.0000000   1.0078250   1.0078250   1.0078250
 NucSpn=           0           1           1           1           0           1           1           1
 AtZEff=   0.0000000   0.0000000   0.0000000   0.0000000   0.0000000   0.0000000   0.0000000   0.0000000
 NQMom=    0.0000000   0.0000000   0.0000000   0.0000000   0.0000000   0.0000000   0.0000000   0.0000000
 NMagM=    0.0000000   2.7928460   2.7928460   2.7928460   0.0000000   2.7928460   2.7928460   2.7928460
 AtZNuc=   6.0000000   1.0000000   1.0000000   1.0000000   6.0000000   1.0000000   1.0000000   1.0000000
 Leave Link  101 at Wed Mar 18 11:27:47 2015, MaxMem=    33554432 cpu:         0.2
 (Enter /usr/local/research/Gaussian09/g09-revD.01/g09/l103.exe)

 GradGradGradGradGradGradGradGradGradGradGradGradGradGradGradGradGradGrad
 Berny optimization.
 Initialization pass.
                           ----------------------------
                           !    Initial Parameters    !
                           ! (Angstroms and Degrees)  !
 --------------------------                            --------------------------
 ! Name  Definition              Value          Derivative Info.                !
 --------------------------------------------------------------------------------
 ! R1    R(1,2)                  1.07           estimate D2E/DX2                !
 ! R2    R(1,3)                  1.07           estimate D2E/DX2                !
 ! R3    R(1,4)                  1.07           estimate D2E/DX2                !
 ! R4    R(1,5)                  1.54           estimate D2E/DX2                !
 ! R5    R(5,6)                  1.07           estimate D2E/DX2                !
 ! R6    R(5,7)                  1.07           estimate D2E/DX2                !
 ! R7    R(5,8)                  1.07           estimate D2E/DX2                !
 ! A1    A(2,1,3)              109.4712         estimate D2E/DX2                !
 ! A2    A(2,1,4)              109.4712         estimate D2E/DX2                !
 ! A3    A(2,1,5)              109.4712         estimate D2E/DX2                !
 ! A4    A(3,1,4)              109.4712         estimate D2E/DX2                !
 ! A5    A(3,1,5)              109.4713         estimate D2E/DX2                !
 ! A6    A(4,1,5)              109.4712         estimate D2E/DX2                !
 ! A7    A(1,5,6)              109.4712         estimate D2E/DX2                !
 ! A8    A(1,5,7)              109.4712         estimate D2E/DX2                !
 ! A9    A(1,5,8)              109.4712         estimate D2E/DX2                !
 ! A10   A(6,5,7)              109.4713         estimate D2E/DX2                !
 ! A11   A(6,5,8)              109.4712         estimate D2E/DX2                !
 ! A12   A(7,5,8)              109.4712         estimate D2E/DX2                !
 ! D1    D(2,1,5,6)             59.9889         estimate D2E/DX2                !
 ! D2    D(2,1,5,7)            179.9889         estimate D2E/DX2                !
 ! D3    D(2,1,5,8)            -60.0111         estimate D2E/DX2                !
 ! D4    D(3,1,5,6)            -60.0111         estimate D2E/DX2                !
 ! D5    D(3,1,5,7)             59.9889         estimate D2E/DX2                !
 ! D6    D(3,1,5,8)            179.9889         estimate D2E/DX2                !
 ! D7    D(4,1,5,6)            179.9889         estimate D2E/DX2                !
 ! D8    D(4,1,5,7)            -60.0111         estimate D2E/DX2                !
 ! D9    D(4,1,5,8)             59.9889         estimate D2E/DX2                !
 --------------------------------------------------------------------------------
 Trust Radius=3.00D-01 FncErr=1.00D-07 GrdErr=1.00D-06
 Number of steps in this run=     38 maximum allowed number of steps=    100.
 GradGradGradGradGradGradGradGradGradGradGradGradGradGradGradGradGradGrad

 Leave Link  103 at Wed Mar 18 11:27:47 2015, MaxMem=    33554432 cpu:         0.0
 (Enter /usr/local/research/Gaussian09/g09-revD.01/g09/l202.exe)
                          Input orientation:                          
 ---------------------------------------------------------------------
 Center     Atomic      Atomic             Coordinates (Angstroms)
 Number     Number       Type             X           Y           Z
 ---------------------------------------------------------------------
      1          6           0       -0.639269   -0.007610    0.000000
      2          1           0       -0.282615   -1.016420    0.000000
      3          1           0       -0.282597    0.496788   -0.873652
      4          1           0       -1.709269   -0.007597    0.000000
      5          6           0       -0.125927    0.718346    1.257405
      6          1           0        0.944073    0.718163    1.257502
      7          1           0       -0.482422    1.727212    1.257307
      8          1           0       -0.482759    0.214060    2.131056
 ---------------------------------------------------------------------
                    Distance matrix (angstroms):
                    1          2          3          4          5
     1  C    0.000000
     2  H    1.070000   0.000000
     3  H    1.070000   1.747302   0.000000
     4  H    1.070000   1.747303   1.747303   0.000000
     5  C    1.540000   2.148263   2.148263   2.148263   0.000000
     6  H    2.148263   2.468776   2.468915   3.024610   1.070000
     7  H    2.148263   3.024610   2.468777   2.468915   1.070000
     8  H    2.148263   2.468915   3.024611   2.468777   1.070000
                    6          7          8
     6  H    0.000000
     7  H    1.747303   0.000000
     8  H    1.747303   1.747303   0.000000
 Stoichiometry    C2H6
 Framework group  D3[C3(C.C),X(H6)]
 Deg. of freedom     4
 Full point group                 D3      NOp   6
 Largest Abelian subgroup         C2      NOp   2
 Largest concise Abelian subgroup C2      NOp   2
                         Standard orientation:                         
 ---------------------------------------------------------------------
 Center     Atomic      Atomic             Coordinates (Angstroms)
 Number     Number       Type             X           Y           Z
 ---------------------------------------------------------------------
      1          6           0        0.000000    0.000000    0.770000
      2          1           0       -0.504318    0.873700    1.126666
      3          1           0        1.008806   -0.000098    1.126666
      4          1           0       -0.504487   -0.873603    1.126666
      5          6           0        0.000000    0.000000   -0.770000
      6          1           0        0.504318    0.873700   -1.126666
      7          1           0        0.504487   -0.873603   -1.126666
      8          1           0       -1.008806   -0.000098   -1.126666
 ---------------------------------------------------------------------
 Rotational constants (GHZ):     82.1231626     20.2293892     20.2293892
 Leave Link  202 at Wed Mar 18 11:27:47 2015, MaxMem=    33554432 cpu:         0.1
 (Enter /usr/local/research/Gaussian09/g09-revD.01/g09/l301.exe)
 Standard basis: def2SVP (5D, 7F)
 Ernie: Thresh=  0.10000D-02 Tol=  0.10000D-05 Strict=F.
 There are    30 symmetry adapted cartesian basis functions of A   symmetry.
 There are    30 symmetry adapted cartesian basis functions of B   symmetry.
 There are    29 symmetry adapted basis functions of A   symmetry.
 There are    29 symmetry adapted basis functions of B   symmetry.
    58 basis functions,    92 primitive gaussians,    60 cartesian basis functions
     9 alpha electrons        9 beta electrons
       nuclear repulsion energy        42.6703237100 Hartrees.
 IExCor= 1009 DFT=T Ex+Corr=PBE1PBE ExCW=0 ScaHFX=  0.250000
 ScaDFX=  0.750000  0.750000  1.000000  1.000000 ScalE2=  1.000000  1.000000
 IRadAn=      0 IRanWt=     -1 IRanGd=            0 ICorTp=0 IEmpDi=  4
 NAtoms=    8 NActive=    8 NUniq=    2 SFac= 4.00D+00 NAtFMM=   60 NAOKFM=F Big=F
 Integral buffers will be    131072 words long.
 Raffenetti 2 integral format.
 Two-electron integral symmetry is turned on.
 Leave Link  301 at Wed Mar 18 11:27:48 2015, MaxMem=    33554432 cpu:         0.1
 (Enter /usr/local/research/Gaussian09/g09-revD.01/g09/l302.exe)
 NPDir=0 NMtPBC=     1 NCelOv=     1 NCel=       1 NClECP=     1 NCelD=      1
         NCelK=      1 NCelE2=     1 NClLst=     1 CellRange=     0.0.
 One-electron integrals computed using PRISM.
 One-electron integral symmetry used in STVInt
   6 Symmetry operations used in ECPInt.
 ECPInt:  NShTT=     465 NPrTT=    1529 LenC2=     466 LenP2D=    1451.
 LDataN:  DoStor=T MaxTD1= 4 Len=   56
 NBasis=    58 RedAO= T EigKep=  3.05D-03  NBF=    29    29
 NBsUse=    58 1.00D-06 EigRej= -1.00D+00 NBFU=    29    29
 Precomputing XC quadrature grid using
 IXCGrd= 4 IRadAn=           0 IRanWt=          -1 IRanGd=           0 AccXCQ= 0.00D+00.
 Generated NRdTot=       0 NPtTot=           0 NUsed=           0 NTot=          32
 NSgBfM=    60    60    60    60    60 MxSgAt=     8 MxSgA2=     8.
 Leave Link  302 at Wed Mar 18 11:27:48 2015, MaxMem=    33554432 cpu:         0.4
 (Enter /usr/local/research/Gaussian09/g09-revD.01/g09/l303.exe)
 DipDrv:  MaxL=1.
 Leave Link  303 at Wed Mar 18 11:27:48 2015, MaxMem=    33554432 cpu:         0.1
 (Enter /usr/local/research/Gaussian09/g09-revD.01/g09/l401.exe)
 ExpMin= 1.22D-01 ExpMax= 1.24D+03 ExpMxC= 1.86D+02 IAcc=1 IRadAn=         1 AccDes= 0.00D+00
 Harris functional with IExCor= 1009 and IRadAn=       1 diagonalized for initial guess.
 HarFok:  IExCor= 1009 AccDes= 0.00D+00 IRadAn=         1 IDoV= 1 UseB2=F ITyADJ=14
 ICtDFT=  3500011 ScaDFX=  1.000000  1.000000  1.000000  1.000000
 FoFCou: FMM=F IPFlag=           0 FMFlag=      100000 FMFlg1=           0
         NFxFlg=           0 DoJE=T BraDBF=F KetDBF=T FulRan=T
         wScrn=  0.000000 ICntrl=     500 IOpCl=  0 I1Cent=   200000004 NGrid=           0
         NMat0=    1 NMatS0=      1 NMatT0=    0 NMatD0=    1 NMtDS0=    0 NMtDT0=    0
 Petite list used in FoFCou.
 Harris En= -79.7437239162778    
 JPrj=0 DoOrth=F DoCkMO=F.
 Initial guess orbital symmetries:
       Occupied  (A2) (A1) (A1) (A2) (E) (E) (A1) (E) (E)
       Virtual   (A1) (A2) (E) (E) (A2) (E) (E) (E) (E) (A1) (E)
                 (E) (A2) (A1) (E) (E) (E) (E) (A2) (A1) (A2) (E)
                 (E) (E) (E) (A1) (A2) (A1) (E) (E) (E) (E) (A2)
                 (E) (E) (E) (E) (A1) (E) (E) (A2) (E) (E) (A1)
                 (A2) (E) (E) (E) (E)
 The electronic state of the initial guess is 1-A1.
 Leave Link  401 at Wed Mar 18 11:27:48 2015, MaxMem=    33554432 cpu:         0.3
 (Enter /usr/local/research/Gaussian09/g09-revD.01/g09/l502.exe)
 Closed shell SCF:
 Using DIIS extrapolation, IDIIS=  1040.
 Integral symmetry usage will be decided dynamically.
 Keep R1 ints in memory in symmetry-blocked form, NReq=2380384.
 IVT=       30386 IEndB=       30386 NGot=    33554432 MDV=    32787273
 LenX=    32787273 LenY=    32783232
 Requested convergence on RMS density matrix=1.00D-08 within 128 cycles.
 Requested convergence on MAX density matrix=1.00D-06.
 Requested convergence on             energy=1.00D-06.
 No special actions if energy rises.
 FoFCou: FMM=F IPFlag=           0 FMFlag=           0 FMFlg1=           0
         NFxFlg=           0 DoJE=F BraDBF=F KetDBF=F FulRan=T
         wScrn=  0.000000 ICntrl=     600 IOpCl=  0 I1Cent=           0 NGrid=           0
         NMat0=    1 NMatS0=   1711 NMatT0=    0 NMatD0=    1 NMtDS0=    0 NMtDT0=    0
 Petite list used in FoFCou.
 Integral accuracy reduced to 1.0D-05 until final iterations.

 Cycle   1  Pass 0  IDiag  1:
 E= -79.5440737033810    
 DIIS: error= 4.68D-02 at cycle   1 NSaved=   1.
 NSaved= 1 IEnMin= 1 EnMin= -79.5440737033810     IErMin= 1 ErrMin= 4.68D-02
 ErrMax= 4.68D-02  0.00D+00 EMaxC= 1.00D-01 BMatC= 9.98D-02 BMatP= 9.98D-02
 IDIUse=3 WtCom= 5.32D-01 WtEn= 4.68D-01
 Coeff-Com:  0.100D+01
 Coeff-En:   0.100D+01
 Coeff:      0.100D+01
 Gap=     0.368 Goal=   None    Shift=    0.000
 GapD=    0.368 DampG=1.000 DampE=0.500 DampFc=0.5000 IDamp=-1.
 Damping current iteration by 5.00D-01
 RMSDP=1.08D-02 MaxDP=1.42D-01              OVMax= 1.72D-01

 Cycle   2  Pass 0  IDiag  1:
 E= -79.5990484140063     Delta-E=       -0.054974710625 Rises=F Damp=T
 DIIS: error= 8.76D-03 at cycle   2 NSaved=   2.
 NSaved= 2 IEnMin= 2 EnMin= -79.5990484140063     IErMin= 2 ErrMin= 8.76D-03
 ErrMax= 8.76D-03  0.00D+00 EMaxC= 1.00D-01 BMatC= 2.18D-03 BMatP= 9.98D-02
 IDIUse=3 WtCom= 9.12D-01 WtEn= 8.76D-02
 Coeff-Com:  0.387D-01 0.961D+00
 Coeff-En:   0.436D-01 0.956D+00
 Coeff:      0.391D-01 0.961D+00
 Gap=     0.431 Goal=   None    Shift=    0.000
 RMSDP=1.26D-03 MaxDP=1.26D-02 DE=-5.50D-02 OVMax= 8.46D-02

 Cycle   3  Pass 0  IDiag  1:
 E= -79.6592211787865     Delta-E=       -0.060172764780 Rises=F Damp=F
 DIIS: error= 2.51D-03 at cycle   3 NSaved=   3.
 NSaved= 3 IEnMin= 3 EnMin= -79.6592211787865     IErMin= 3 ErrMin= 2.51D-03
 ErrMax= 2.51D-03  0.00D+00 EMaxC= 1.00D-01 BMatC= 1.37D-04 BMatP= 2.18D-03
 IDIUse=3 WtCom= 9.75D-01 WtEn= 2.51D-02
 Coeff-Com:  0.514D-03 0.149D+00 0.850D+00
 Coeff-En:   0.000D+00 0.000D+00 0.100D+01
 Coeff:      0.501D-03 0.146D+00 0.854D+00
 Gap=     0.436 Goal=   None    Shift=    0.000
 RMSDP=1.95D-04 MaxDP=1.51D-03 DE=-6.02D-02 OVMax= 4.12D-03

 Cycle   4  Pass 0  IDiag  1:
 E= -79.6593389022359     Delta-E=       -0.000117723449 Rises=F Damp=F
 DIIS: error= 5.96D-04 at cycle   4 NSaved=   4.
 NSaved= 4 IEnMin= 4 EnMin= -79.6593389022359     IErMin= 4 ErrMin= 5.96D-04
 ErrMax= 5.96D-04  0.00D+00 EMaxC= 1.00D-01 BMatC= 6.07D-06 BMatP= 1.37D-04
 IDIUse=3 WtCom= 9.94D-01 WtEn= 5.96D-03
 Coeff-Com:  0.453D-03-0.735D-02 0.157D+00 0.849D+00
 Coeff-En:   0.000D+00 0.000D+00 0.000D+00 0.100D+01
 Coeff:      0.451D-03-0.731D-02 0.156D+00 0.850D+00
 Gap=     0.436 Goal=   None    Shift=    0.000
 RMSDP=3.82D-05 MaxDP=2.94D-04 DE=-1.18D-04 OVMax= 8.31D-04

 Cycle   5  Pass 0  IDiag  1:
 E= -79.6593446484004     Delta-E=       -0.000005746165 Rises=F Damp=F
 DIIS: error= 6.95D-06 at cycle   5 NSaved=   5.
 NSaved= 5 IEnMin= 5 EnMin= -79.6593446484004     IErMin= 5 ErrMin= 6.95D-06
 ErrMax= 6.95D-06  0.00D+00 EMaxC= 1.00D-01 BMatC= 2.04D-09 BMatP= 6.07D-06
 IDIUse=1 WtCom= 1.00D+00 WtEn= 0.00D+00
 Coeff-Com:  0.332D-04 0.321D-03-0.116D-01-0.454D-01 0.106D+01
 Coeff:      0.332D-04 0.321D-03-0.116D-01-0.454D-01 0.106D+01
 Gap=     0.436 Goal=   None    Shift=    0.000
 RMSDP=1.55D-06 MaxDP=1.50D-05 DE=-5.75D-06 OVMax= 2.42D-05

 Initial convergence to 1.0D-05 achieved.  Increase integral accuracy.
 Cycle   6  Pass 1  IDiag  1:
 E= -79.6593607624719     Delta-E=       -0.000016114071 Rises=F Damp=F
 DIIS: error= 2.26D-06 at cycle   1 NSaved=   1.
 NSaved= 1 IEnMin= 1 EnMin= -79.6593607624719     IErMin= 1 ErrMin= 2.26D-06
 ErrMax= 2.26D-06  0.00D+00 EMaxC= 1.00D-01 BMatC= 2.17D-10 BMatP= 2.17D-10
 IDIUse=1 WtCom= 1.00D+00 WtEn= 0.00D+00
 Coeff-Com:  0.100D+01
 Coeff:      0.100D+01
 Gap=     0.436 Goal=   None    Shift=    0.000
 RMSDP=1.55D-06 MaxDP=1.50D-05 DE=-1.61D-05 OVMax= 4.22D-06

 Cycle   7  Pass 1  IDiag  1:
 E= -79.6593607626904     Delta-E=       -0.000000000219 Rises=F Damp=F
 DIIS: error= 2.86D-07 at cycle   2 NSaved=   2.
 NSaved= 2 IEnMin= 2 EnMin= -79.6593607626904     IErMin= 2 ErrMin= 2.86D-07
 ErrMax= 2.86D-07  0.00D+00 EMaxC= 1.00D-01 BMatC= 3.70D-12 BMatP= 2.17D-10
 IDIUse=1 WtCom= 1.00D+00 WtEn= 0.00D+00
 Coeff-Com:  0.851D-02 0.991D+00
 Coeff:      0.851D-02 0.991D+00
 Gap=     0.436 Goal=   None    Shift=    0.000
 RMSDP=8.08D-08 MaxDP=8.71D-07 DE=-2.19D-10 OVMax= 1.21D-06

 Cycle   8  Pass 1  IDiag  1:
 E= -79.6593607626908     Delta-E=        0.000000000000 Rises=F Damp=F
 DIIS: error= 2.75D-07 at cycle   3 NSaved=   3.
 NSaved= 3 IEnMin= 3 EnMin= -79.6593607626908     IErMin= 3 ErrMin= 2.75D-07
 ErrMax= 2.75D-07  0.00D+00 EMaxC= 1.00D-01 BMatC= 3.35D-12 BMatP= 3.70D-12
 IDIUse=1 WtCom= 1.00D+00 WtEn= 0.00D+00
 Coeff-Com: -0.791D-02 0.491D+00 0.517D+00
 Coeff:     -0.791D-02 0.491D+00 0.517D+00
 Gap=     0.436 Goal=   None    Shift=    0.000
 RMSDP=2.87D-08 MaxDP=4.27D-07 DE=-4.69D-13 OVMax= 4.75D-07

 Cycle   9  Pass 1  IDiag  1:
 E= -79.6593607626935     Delta-E=       -0.000000000003 Rises=F Damp=F
 DIIS: error= 3.77D-08 at cycle   4 NSaved=   4.
 NSaved= 4 IEnMin= 4 EnMin= -79.6593607626935     IErMin= 4 ErrMin= 3.77D-08
 ErrMax= 3.77D-08  0.00D+00 EMaxC= 1.00D-01 BMatC= 2.90D-14 BMatP= 3.35D-12
 IDIUse=1 WtCom= 1.00D+00 WtEn= 0.00D+00
 Coeff-Com: -0.358D-02 0.947D-01 0.124D+00 0.785D+00
 Coeff:     -0.358D-02 0.947D-01 0.124D+00 0.785D+00
 Gap=     0.436 Goal=   None    Shift=    0.000
 RMSDP=3.04D-09 MaxDP=2.71D-08 DE=-2.69D-12 OVMax= 5.25D-08

 SCF Done:  E(RPBE1PBE) =  -79.6593607627     A.U. after    9 cycles
            NFock=  9  Conv=0.30D-08     -V/T= 2.0107
 KE= 7.881518205092D+01 PE=-2.687990770576D+02 EE= 6.765421053404D+01
 Leave Link  502 at Wed Mar 18 11:27:50 2015, MaxMem=    33554432 cpu:         1.7
 (Enter /usr/local/research/Gaussian09/g09-revD.01/g09/l601.exe)
 Copying SCF densities to generalized density rwf, IOpCl= 0 IROHF=0.

 **********************************************************************

            Population analysis using the SCF density.

 **********************************************************************

 Orbital symmetries:
       Occupied  (A1) (A2) (A1) (A2) (E) (E) (A1) (E) (E)
       Virtual   (A1) (A2) (E) (E) (E) (E) (A2) (E) (E) (A1) (E)
                 (E) (A2) (A1) (A2) (E) (E) (E) (E) (A1) (A2) (E)
                 (E) (E) (E) (A1) (A2) (A1) (E) (E) (E) (E) (A2)
                 (E) (E) (E) (E) (A1) (E) (E) (A2) (E) (E) (A1)
                 (A2) (E) (E) (E) (E)
 The electronic state is 1-A1.
 Alpha  occ. eigenvalues --  -10.21233 -10.21227  -0.76937  -0.62827  -0.45182
 Alpha  occ. eigenvalues --   -0.45182  -0.36883  -0.35717  -0.35717
 Alpha virt. eigenvalues --    0.07909   0.13149   0.14611   0.14611   0.17292
 Alpha virt. eigenvalues --    0.17292   0.23801   0.43898   0.43898   0.44571
 Alpha virt. eigenvalues --    0.52342   0.52342   0.64229   0.67749   0.71775
 Alpha virt. eigenvalues --    0.71877   0.71877   0.73173   0.73173   0.80093
 Alpha virt. eigenvalues --    0.99016   1.11145   1.11145   1.38286   1.38286
 Alpha virt. eigenvalues --    1.55820   1.56539   1.74976   1.79881   1.79881
 Alpha virt. eigenvalues --    1.81376   1.81376   1.86435   1.89564   1.89564
 Alpha virt. eigenvalues --    2.10797   2.10797   2.25164   2.42379   2.42379
 Alpha virt. eigenvalues --    2.46449   2.63692   2.63692   2.76264   2.92568
 Alpha virt. eigenvalues --    2.97701   2.97701   3.08184   3.08184
          Condensed to atoms (all electrons):
               1          2          3          4          5          6
     1  C    4.550268   0.402045   0.402045   0.402045   0.436380  -0.026337
     2  H    0.402045   0.638988  -0.023094  -0.023094  -0.026337  -0.007187
     3  H    0.402045  -0.023094   0.638988  -0.023094  -0.026337  -0.007181
     4  H    0.402045  -0.023094  -0.023094   0.638988  -0.026337   0.007935
     5  C    0.436380  -0.026337  -0.026337  -0.026337   4.550268   0.402045
     6  H   -0.026337  -0.007187  -0.007181   0.007935   0.402045   0.638988
     7  H   -0.026337   0.007935  -0.007187  -0.007181   0.402045  -0.023094
     8  H   -0.026337  -0.007181   0.007935  -0.007187   0.402045  -0.023094
               7          8
     1  C   -0.026337  -0.026337
     2  H    0.007935  -0.007181
     3  H   -0.007187   0.007935
     4  H   -0.007181  -0.007187
     5  C    0.402045   0.402045
     6  H   -0.023094  -0.023094
     7  H    0.638988  -0.023094
     8  H   -0.023094   0.638988
 Mulliken charges:
               1
     1  C   -0.113772
     2  H    0.037924
     3  H    0.037924
     4  H    0.037924
     5  C   -0.113772
     6  H    0.037924
     7  H    0.037924
     8  H    0.037924
 Sum of Mulliken charges =   0.00000
 Mulliken charges with hydrogens summed into heavy atoms:
               1
     1  C    0.000000
     5  C    0.000000
 Atomic Valencies and Mayer Atomic Bond Orders:
               1          2          3          4          5          6
     1  C    4.047555   0.980606   0.980606   0.980606   1.102900   0.000945
     2  H    0.980606   0.981636  -0.002802  -0.002802   0.000945  -0.001467
     3  H    0.980606  -0.002802   0.981636  -0.002802   0.000945  -0.001466
     4  H    0.980606  -0.002802  -0.002802   0.981636   0.000945   0.008621
     5  C    1.102900   0.000945   0.000945   0.000945   4.047555   0.980606
     6  H    0.000945  -0.001467  -0.001466   0.008621   0.980606   0.981636
     7  H    0.000945   0.008621  -0.001467  -0.001466   0.980606  -0.002802
     8  H    0.000945  -0.001466   0.008621  -0.001467   0.980606  -0.002802
               7          8
     1  C    0.000945   0.000945
     2  H    0.008621  -0.001466
     3  H   -0.001467   0.008621
     4  H   -0.001466  -0.001467
     5  C    0.980606   0.980606
     6  H   -0.002802  -0.002802
     7  H    0.981636  -0.002802
     8  H   -0.002802   0.981636
 Lowdin Atomic Charges:
               1
     1  C   -0.069166
     2  H    0.023055
     3  H    0.023055
     4  H    0.023055
     5  C   -0.069166
     6  H    0.023055
     7  H    0.023055
     8  H    0.023055
 Sum of Lowdin charges  =   0.00000
 Lowdin atomic charges with hydrogens summed into heavy atoms:
               1
     1  C    0.000000
     2  H    0.000000
     3  H    0.000000
     4  H    0.000000
     5  C    0.000000
     6  H    0.000000
     7  H    0.000000
     8  H    0.000000
 Sum of Lowdin charges  =   0.00000
 Dipole moment from Lowdin charges (Debye):
    X=     0.0000    Y=     0.0000    Z=     0.0000  Tot=     0.0000
 Electronic spatial extent (au):  <R**2>=            107.5510
 Charge=              0.0000 electrons
 Dipole moment (field-independent basis, Debye):
    X=              0.0000    Y=              0.0000    Z=              0.0000  Tot=              0.0000
 Quadrupole moment (field-independent basis, Debye-Ang):
   XX=            -14.5267   YY=            -14.5267   ZZ=            -15.5210
   XY=              0.0000   XZ=              0.0000   YZ=              0.0000
 Traceless Quadrupole moment (field-independent basis, Debye-Ang):
   XX=              0.3315   YY=              0.3315   ZZ=             -0.6629
   XY=              0.0000   XZ=              0.0000   YZ=              0.0000
 Octapole moment (field-independent basis, Debye-Ang**2):
  XXX=              0.0000  YYY=              0.0003  ZZZ=              0.0000  XYY=              0.0000
  XXY=             -0.0003  XXZ=              0.0000  XZZ=              0.0000  YZZ=              0.0000
  YYZ=              0.0000  XYZ=              0.0000
 Hexadecapole moment (field-independent basis, Debye-Ang**3):
 XXXX=            -27.8108 YYYY=            -27.8108 ZZZZ=            -91.7128 XXXY=              0.0000
 XXXZ=              1.1543 YYYX=              0.0000 YYYZ=              0.0000 ZZZX=              0.0000
 ZZZY=              0.0000 XXYY=             -9.2703 XXZZ=            -18.8497 YYZZ=            -18.8497
 XXYZ=              0.0000 YYXZ=             -1.1543 ZZXY=              0.0000
 N-N= 4.267032370996D+01 E-N=-2.687990779596D+02  KE= 7.881518205092D+01
 Symmetry A    KE= 4.067386475275D+01
 Symmetry B    KE= 3.814131729817D+01
 There are a total of       62764 grid points.
 ElSum from          density=       17.9999914808
 ElSum from atomic densities=       17.9999691216
 Hirshfeld populations at iteration   1 (CA, CB, DipXYZ):
               1          2          3          4          5
     1  C    3.052475   3.052475   0.000002   0.000000  -0.019576
     2  H    0.482508   0.482508  -0.073380   0.127124   0.046008
     3  H    0.482508   0.482508   0.146783  -0.000015   0.046011
     4  H    0.482508   0.482508  -0.073406  -0.127110   0.046008
     5  C    3.052475   3.052475  -0.000002   0.000000   0.019576
     6  H    0.482508   0.482508   0.073380   0.127124  -0.046008
     7  H    0.482508   0.482508   0.073406  -0.127110  -0.046008
     8  H    0.482508   0.482508  -0.146783  -0.000015  -0.046011
       Tot   8.999996   8.999996   0.000000   0.000000   0.000000

 Dip from Atomic Chgs              0.000000   0.000000   0.000000
         Total Dipole              0.000000   0.000000   0.000000

 Hirshfeld charges, spin densities, dipoles, and CM5 charges using IRadAn=      4:
              Q-H        S-H        Dx         Dy         Dz        Q-CM5   
     1  C   -0.104949   0.000000   0.000002   0.000000  -0.019576  -0.266004
     2  H    0.034985   0.000000  -0.073380   0.127124   0.046008   0.088669
     3  H    0.034985   0.000000   0.146783  -0.000015   0.046011   0.088669
     4  H    0.034985   0.000000  -0.073406  -0.127110   0.046008   0.088669
     5  C   -0.104949   0.000000  -0.000002   0.000000   0.019576  -0.266004
     6  H    0.034985   0.000000   0.073380   0.127124  -0.046008   0.088669
     7  H    0.034985   0.000000   0.073406  -0.127110  -0.046008   0.088669
     8  H    0.034985   0.000000  -0.146783  -0.000015  -0.046011   0.088669
       Tot   0.000009   0.000000   0.000000   0.000000   0.000000   0.000009
 Hirshfeld charges with hydrogens summed into heavy atoms:
              Q-H       Q-CM5   
     1  C    0.000004   0.000004
     5  C    0.000004   0.000004
 
 EQQ= 0.000000000000E+00 EQD= 0.000000000000E+00 EDD=-0.189982556692E-02
 EQQ+QD+DD=-0.189982556692E-02
 
 No NMR shielding tensors so no spin-rotation constants.
 Leave Link  601 at Wed Mar 18 11:27:51 2015, MaxMem=    33554432 cpu:         0.8
 (Enter /usr/local/research/Gaussian09/g09-revD.01/g09/l701.exe)
 Compute integral first derivatives.
 ... and contract with generalized density number  0.
 DipInt: DoE/N= T T RetVal/Mat= T F Init=T NMatP=  1 IDeriv=0 Min/MaxMlt=  1  1
 Entering OneElI...
 Multipole integrals L=1 to 1 MinM= 0 MaxM= 0.
 Requested accuracy = 0.1000D-12
 PrsmSu:  NPrtUS=   1 ThrOK=F IAlg=1 NPAlg=1 LenDen=           0.
 Prism:   IPart=     0 DynPar=F LinDyn=F Incr=           4.
 PRISM was handed    33518529 working-precision words and   465 shell-pairs
 IPart=  0 NShTot=         465 NBatch=          25 AvBLen=        18.6
 PrSmSu:  NxtVal=              5.
 Entering OneElI...
 Calculate overlap and kinetic energy integrals
    NBasis =  60  MinDer = 1  MaxDer = 1
 Requested accuracy = 0.1000D-12
 PrsmSu:  NPrtUS=   1 ThrOK=F IAlg=1 NPAlg=1 LenDen=           0.
 Prism:   IPart=     0 DynPar=F LinDyn=F Incr=           4.
 PRISM was handed    33513940 working-precision words and   465 shell-pairs
 IPart=  0 NShTot=         465 NBatch=          29 AvBLen=        16.0
 PrSmSu:  NxtVal=              5.
 Entering OneElI...
 Calculate potential energy integrals
    NBasis =  60  MinDer = 1  MaxDer = 1
 Requested accuracy = 0.1000D-12
 PrsmSu:  NPrtUS=   1 ThrOK=F IAlg=1 NPAlg=1 LenDen=           0.
 Prism:   IPart=     0 DynPar=F LinDyn=F Incr=          37.
 PRISM was handed    33518191 working-precision words and   465 shell-pairs
 IPart=  0 NShTot=        3720 NBatch=         465 AvBLen=         8.0
 PrSmSu:  NxtVal=             38.
   6 Symmetry operations used in ECPInt.
 ECPInt:  NShTT=     465 NPrTT=    1529 LenC2=     466 LenP2D=    1451.
 LDataN:  DoStor=F MaxTD1= 5 Len=  102
 LDataN:  DoStor=T MaxTD1= 5 Len=  102
 ECPSu:  NPrtUS=   1 ThrOK=F
 FXYZ after ECPSu
 I=    0 X=   0.000000000000D+00 Y=   0.000000000000D+00 Z=   0.000000000000D+00
 I=    1 X=   0.000000000000D+00 Y=   0.000000000000D+00 Z=   0.000000000000D+00
 I=    2 X=   0.000000000000D+00 Y=   0.000000000000D+00 Z=   0.000000000000D+00
 I=    3 X=   0.000000000000D+00 Y=   0.000000000000D+00 Z=   0.000000000000D+00
 I=    4 X=   0.000000000000D+00 Y=   0.000000000000D+00 Z=   0.000000000000D+00
 I=    5 X=   0.000000000000D+00 Y=   0.000000000000D+00 Z=   0.000000000000D+00
 I=    6 X=   0.000000000000D+00 Y=   0.000000000000D+00 Z=   0.000000000000D+00
 I=    7 X=   0.000000000000D+00 Y=   0.000000000000D+00 Z=   0.000000000000D+00
 I=    8 X=   0.000000000000D+00 Y=   0.000000000000D+00 Z=   0.000000000000D+00
 l701 out
 I=    0 X=   0.000000000000D+00 Y=   0.000000000000D+00 Z=   0.000000000000D+00
 I=    1 X=   0.000000000000D+00 Y=   0.000000000000D+00 Z=   4.131890969381D+00
 I=    2 X=  -1.384453515894D+00 Y=   2.398498483112D+00 Z=   1.088782538475D+00
 I=    3 X=   2.769387375260D+00 Y=  -2.773264326218D-04 Z=   1.088782538475D+00
 I=    4 X=  -1.384933859366D+00 Y=  -2.398221156679D+00 Z=   1.088782538475D+00
 I=    5 X=   0.000000000000D+00 Y=   0.000000000000D+00 Z=  -4.131890969381D+00
 I=    6 X=   1.384453515894D+00 Y=   2.398498483112D+00 Z=  -1.088782538475D+00
 I=    7 X=   1.384933859366D+00 Y=  -2.398221156679D+00 Z=  -1.088782538475D+00
 I=    8 X=  -2.769387375260D+00 Y=  -2.773264326166D-04 Z=  -1.088782538475D+00
 Leave Link  701 at Wed Mar 18 11:27:51 2015, MaxMem=    33554432 cpu:         0.3
 (Enter /usr/local/research/Gaussian09/g09-revD.01/g09/l702.exe)
 L702 exits ... SP integral derivatives will be done elsewhere.
 Leave Link  702 at Wed Mar 18 11:27:51 2015, MaxMem=    33554432 cpu:         0.1
 (Enter /usr/local/research/Gaussian09/g09-revD.01/g09/l703.exe)
 Compute integral first derivatives, UseDBF=F ICtDFT=           0.
 Integral derivatives from FoFJK, PRISM(SPDF).
 ICntrl=      2127.
 Calling FoFJK, ICntrl=      2127 FMM=F ISym2X=1 I1Cent= 0 IOpClX= 0 NMat=1 NMatS=1 NMatT=0.
 FoFJK:  IHMeth= 1 ICntrl=    2127 DoSepK=F KAlg= 0 I1Cent=   0 FoldK=F
 IRaf=         0 NMat=   1 IRICut=       1 DoRegI=T DoRafI=F ISym2E= 1.
 FoFCou: FMM=F IPFlag=           0 FMFlag=      100000 FMFlg1=         800
         NFxFlg=           0 DoJE=F BraDBF=F KetDBF=F FulRan=T
         wScrn=  0.000000 ICntrl=    2127 IOpCl=  0 I1Cent=           0 NGrid=           0
         NMat0=    1 NMatS0=      1 NMatT0=    0 NMatD0=    1 NMtDS0=    0 NMtDT0=    0
 Petite list used in FoFCou.
 FoFCou:  KetSym=F NOpSet=  6 NOpAb=2 NOp=  6.
 FoFCou:  CnvScl= 1.00D+00 Thresh= 1.00D-10 IAcrcy=      10.
 PrismS was handed    33515268 working-precision words and   465 shell-pairs
 FoFCou: LinMIO=F DoNuc=F BraDBF=F KetDBF=F HaveP=T PDBF=F HaveZ=T HaveW=F
         NIJTC =       6 NIJTAt=       0 NIJTCD=       0 NIJTT =       6
         IJTBeg=       1 IJTEnd=       6 KLTBeg=       1 KLTEnd=       6
         IPTBeg=       1 IPTEnd=       6 IPTBCv=       1 IPTECv=       6
         IZTBeg=       1 IZTEnd=       6 IZTBCv=       1 IZTECv=       6
         IWTBeg=       7 IWTEnd=       6 IWTBCv=       7 IWTECv=       6
         INTBeg=       1 INTEnd=       0 IFTBCv=       1 IFTECv=       6
 NCel replicated for PrismC:     1
 CoulSu:  IncDef=  1024 NBBP=         108345 NTPThr=   100 NPartT=    1 Incr=        1024 LDynOK=F.
 CoulSu:  NPrtUS=   1 ThrOK=F IAlg=1 NPAlg=1 LenDen=           0 LWGrdD=           0 DoCopy=F.
 Enter PrismC: JobTyp=21 DoJE=F Cont=F.
 PrismC:  IPart=     0 DynPar=F LinDyn=F Incr=        1024 UseFst=F UseS4=T IGathr=2.
 PrismC was handed    33514764 working-precision words and   465 shell-pairs
 IPart=  0 NShTot=       19230 NShNF=       19230 NShFF=           0 NBatch=         604 AvBLen=        31.8
 CoulSu:  NxtVal=           1025.
 ReadGW:  IGet=0 IStart=           1 Next=           1 LGW=           0.
 Remaining memory in FofDFT       32.00 Mw
 CkSvGd:  ISavGI=        -1 IRadAn=       4 IRASav=       0 ISavGd=        -1.
 CalDSu:  NPrtUS=   1 ThrOK=F IAlg=1 NPAlg=1 DoDPD=F LenP=        1830 LenD1P=             0.
 IPart=  0 IRanGd=          0 ScrnBf=T ScrnGd=T RCrit=4.00D+00 DoMicB=T.
 IPart=  0        14100 of        15630 points in      32 batches and      104 microbatches, Max-NSigAt=       8 Max-NSgAt2=       8
 Forces at end of L703
 I=    0 X=   0.000000000000D+00 Y=   0.000000000000D+00 Z=   0.000000000000D+00
 I=    1 X=   0.000000000000D+00 Y=   0.000000000000D+00 Z=   3.614584221877D-02
 I=    2 X=   9.448527721087D-03 Y=  -1.636746052222D-02 Z=  -1.105792289729D-02
 I=    3 X=  -1.889890046823D-02 Y=   1.065226288968D-06 Z=  -1.105792289728D-02
 I=    4 X=   9.450372747142D-03 Y=   1.636639529592D-02 Z=  -1.105792289729D-02
 I=    5 X=   0.000000000000D+00 Y=   0.000000000000D+00 Z=  -3.614584221877D-02
 I=    6 X=  -9.448527721087D-03 Y=  -1.636746052222D-02 Z=   1.105792289729D-02
 I=    7 X=  -9.450372747142D-03 Y=   1.636639529592D-02 Z=   1.105792289729D-02
 I=    8 X=   1.889890046823D-02 Y=   1.065226294019D-06 Z=   1.105792289729D-02
 Leave Link  703 at Wed Mar 18 11:27:52 2015, MaxMem=    33554432 cpu:         0.8
 (Enter /usr/local/research/Gaussian09/g09-revD.01/g09/l716.exe)
 FrcOut:
 IF    =   305 IFX   =   333 IFXYZ =   357
 IFFX  =   381 IFFFX =   381 IFLen =    28
 IFFLen=     0 IFFFLn=     0 IEDerv=   381
 LEDerv=  1205 IFroze=  1868 ICStrt=  8809
 Dipole        = 2.04480530D-16-7.10735083D-16 2.66453526D-15
 Quadrupole    = 2.46426683D-01 2.46426683D-01-4.92853366D-01
                 5.89263140D-16 9.26742592D-16-1.68542127D-15
 Forces in standard orientation:
 -------------------------------------------------------------------
 Center     Atomic                   Forces (Hartrees/Bohr)
 Number     Number              X              Y              Z
 -------------------------------------------------------------------
      1        6           0.000000000    0.000000000    0.036145842
      2        1           0.009448528   -0.016367461   -0.011057923
      3        1          -0.018898900    0.000001065   -0.011057923
      4        1           0.009450373    0.016366395   -0.011057923
      5        6           0.000000000    0.000000000   -0.036145842
      6        1          -0.009448528   -0.016367461    0.011057923
      7        1          -0.009450373    0.016366395    0.011057923
      8        1           0.018898900    0.000001065    0.011057923
 -------------------------------------------------------------------
 ***** Axes restored to original set *****
 Rotating derivatives, DoTrsp=F IDiff=-1 LEDeriv=   1204 LFDPrp=       0 LDFDPr=       0.
 -------------------------------------------------------------------
 Center     Atomic                   Forces (Hartrees/Bohr)
 Number     Number              X              Y              Z
 -------------------------------------------------------------------
      1        6           0.012048821    0.017039155    0.029512964
      2        1           0.005222171   -0.020962122   -0.003572738
      3        1           0.005223770    0.007386014   -0.019940038
      4        1          -0.021504054   -0.002062010   -0.003573499
      5        6          -0.012048821   -0.017039155   -0.029512964
      6        1           0.021504053    0.002060165    0.003574564
      7        1          -0.005220431    0.020962737    0.003571673
      8        1          -0.005225509   -0.007384783    0.019940038
 -------------------------------------------------------------------
 Cartesian Forces:  Max     0.029512964 RMS     0.015124098
 Final forces over variables, Energy=-7.96593608D+01:
  0.00000000D+00 0.00000000D+00 0.00000000D+00 0.00000000D+00
  0.00000000D+00 0.00000000D+00 0.00000000D+00 0.00000000D+00
  0.00000000D+00 0.00000000D+00 0.00000000D+00 0.00000000D+00
  0.00000000D+00 0.00000000D+00 0.00000000D+00 0.00000000D+00
  0.00000000D+00 0.00000000D+00 0.00000000D+00 0.00000000D+00
  0.00000000D+00 0.00000000D+00 0.00000000D+00 0.00000000D+00
  0.00000000D+00 0.00000000D+00 0.00000000D+00 0.00000000D+00
 Leave Link  716 at Wed Mar 18 11:27:52 2015, MaxMem=    33554432 cpu:         0.0
 (Enter /usr/local/research/Gaussian09/g09-revD.01/g09/l103.exe)

 GradGradGradGradGradGradGradGradGradGradGradGradGradGradGradGradGradGrad
 Berny optimization.
 FormGI is forming the generalized inverse of G from B-inverse, IUseBI=4.
 Internal  Forces:  Max     0.021504027 RMS     0.010337463
 Search for a local minimum.
 Step number   1 out of a maximum of   38
 All quantities printed in internal units (Hartrees-Bohrs-Radians)
 RMS Force = .10337D-01 SwitMx=.10000D-02 MixMth= 1
 Mixed Optimization -- RFO/linear search
 Second derivative matrix not updated -- first step.
 ITU=  0
     Eigenvalues ---    0.00237   0.05720   0.05720   0.05720   0.05720
     Eigenvalues ---    0.16000   0.16000   0.16000   0.16000   0.16000
     Eigenvalues ---    0.16000   0.28519   0.37230   0.37230   0.37230
     Eigenvalues ---    0.37230   0.37230   0.37230
 RFO step:  Lambda=-8.55384217D-03 EMin= 2.36825035D-03
 Linear search not attempted -- first point.
 Iteration  1 RMS(Cart)=  0.03280327 RMS(Int)=  0.00040408
 Iteration  2 RMS(Cart)=  0.00045864 RMS(Int)=  0.00020312
 Iteration  3 RMS(Cart)=  0.00000026 RMS(Int)=  0.00020312
 ITry= 1 IFail=0 DXMaxC= 7.08D-02 DCOld= 1.00D+10 DXMaxT= 3.00D-01 DXLimC= 3.00D+00 Rises=F
 ClnCor:  largest displacement from symmetrization is 1.49D-12 for atom     3.
 Variable       Old X    -DE/DX   Delta X   Delta X   Delta X     New X
                                 (Linear)    (Quad)   (Total)
    R1        2.02201   0.02150   0.00000   0.05646   0.05646   2.07847
    R2        2.02201   0.02150   0.00000   0.05646   0.05646   2.07847
    R3        2.02201   0.02150   0.00000   0.05646   0.05646   2.07847
    R4        2.91018  -0.00297   0.00000  -0.01012  -0.01012   2.90006
    R5        2.02201   0.02150   0.00000   0.05646   0.05646   2.07847
    R6        2.02201   0.02150   0.00000   0.05646   0.05646   2.07847
    R7        2.02201   0.02150   0.00000   0.05646   0.05646   2.07847
    A1        1.91063  -0.00417   0.00000  -0.02475  -0.02505   1.88558
    A2        1.91063  -0.00417   0.00000  -0.02475  -0.02505   1.88558
    A3        1.91063   0.00417   0.00000   0.02475   0.02443   1.93506
    A4        1.91063  -0.00417   0.00000  -0.02475  -0.02505   1.88558
    A5        1.91063   0.00417   0.00000   0.02475   0.02443   1.93506
    A6        1.91063   0.00417   0.00000   0.02475   0.02443   1.93506
    A7        1.91063   0.00417   0.00000   0.02475   0.02443   1.93506
    A8        1.91063   0.00417   0.00000   0.02475   0.02443   1.93506
    A9        1.91063   0.00417   0.00000   0.02475   0.02443   1.93506
   A10        1.91063  -0.00417   0.00000  -0.02475  -0.02505   1.88558
   A11        1.91063  -0.00417   0.00000  -0.02475  -0.02505   1.88558
   A12        1.91063  -0.00417   0.00000  -0.02475  -0.02505   1.88558
    D1        1.04700   0.00000   0.00000   0.00004   0.00004   1.04705
    D2        3.14140   0.00000   0.00000   0.00004   0.00004   3.14144
    D3       -1.04739   0.00000   0.00000   0.00004   0.00004  -1.04735
    D4       -1.04739   0.00000   0.00000   0.00004   0.00004  -1.04735
    D5        1.04700   0.00000   0.00000   0.00004   0.00004   1.04705
    D6        3.14140   0.00000   0.00000   0.00004   0.00004   3.14144
    D7        3.14140   0.00000   0.00000   0.00004   0.00004   3.14144
    D8       -1.04739   0.00000   0.00000   0.00004   0.00004  -1.04735
    D9        1.04700   0.00000   0.00000   0.00004   0.00004   1.04705
         Item               Value     Threshold  Converged?
 Maximum Force            0.021504     0.000450     NO 
 RMS     Force            0.010337     0.000300     NO 
 Maximum Displacement     0.070777     0.001800     NO 
 RMS     Displacement     0.032921     0.001200     NO 
 Predicted change in Energy=-4.390491D-03
 Lowest energy point so far.  Saving SCF results.
 GradGradGradGradGradGradGradGradGradGradGradGradGradGradGradGradGradGrad

 Leave Link  103 at Wed Mar 18 11:27:52 2015, MaxMem=    33554432 cpu:         0.0
 (Enter /usr/local/research/Gaussian09/g09-revD.01/g09/l202.exe)
                          Input orientation:                          
 ---------------------------------------------------------------------
 Center     Atomic      Atomic             Coordinates (Angstroms)
 Number     Number       Type             X           Y           Z
 ---------------------------------------------------------------------
      1          6           0       -0.638377   -0.006348    0.002186
      2          1           0       -0.284557   -1.047503   -0.021070
      3          1           0       -0.284500    0.494056   -0.911105
      4          1           0       -1.737928   -0.019748   -0.021093
      5          6           0       -0.126820    0.717084    1.255219
      6          1           0        0.972731    0.730351    1.278575
      7          1           0       -0.480515    1.758283    1.278399
      8          1           0       -0.480821    0.216768    2.168510
 ---------------------------------------------------------------------
                    Distance matrix (angstroms):
                    1          2          3          4          5
     1  C    0.000000
     2  H    1.099879   0.000000
     3  H    1.099879   1.780047   0.000000
     4  H    1.099879   1.780047   1.780047   0.000000
     5  C    1.534646   2.183475   2.183475   2.183475   0.000000
     6  H    2.183475   2.535866   2.535973   3.098299   1.099879
     7  H    2.183475   3.098299   2.535866   2.535973   1.099879
     8  H    2.183475   2.535973   3.098299   2.535866   1.099879
                    6          7          8
     6  H    0.000000
     7  H    1.780047   0.000000
     8  H    1.780047   1.780047   0.000000
 Stoichiometry    C2H6
 Framework group  D3[C3(C.C),X(H6)]
 Deg. of freedom     4
 Full point group                 D3      NOp   6
 RotChk:  IX=0 Diff= 1.09D-15
 Largest Abelian subgroup         C2      NOp   2
 Largest concise Abelian subgroup C2      NOp   2
                         Standard orientation:                         
 ---------------------------------------------------------------------
 Center     Atomic      Atomic             Coordinates (Angstroms)
 Number     Number       Type             X           Y           Z
 ---------------------------------------------------------------------
      1          6           0        0.000000    0.000000    0.767323
      2          1           0       -0.513789    0.890062    1.159170
      3          1           0        1.027711   -0.000077    1.159170
      4          1           0       -0.513922   -0.889985    1.159170
      5          6           0        0.000000    0.000000   -0.767323
      6          1           0        0.513789    0.890062   -1.159170
      7          1           0        0.513922   -0.889985   -1.159170
      8          1           0       -1.027711   -0.000077   -1.159170
 ---------------------------------------------------------------------
 Rotational constants (GHZ):     79.1296310     19.8582510     19.8582510
 Leave Link  202 at Wed Mar 18 11:27:52 2015, MaxMem=    33554432 cpu:         0.0
 (Enter /usr/local/research/Gaussian09/g09-revD.01/g09/l301.exe)
 Standard basis: def2SVP (5D, 7F)
 Ernie: Thresh=  0.10000D-02 Tol=  0.10000D-05 Strict=F.
 There are    30 symmetry adapted cartesian basis functions of A   symmetry.
 There are    30 symmetry adapted cartesian basis functions of B   symmetry.
 There are    29 symmetry adapted basis functions of A   symmetry.
 There are    29 symmetry adapted basis functions of B   symmetry.
    58 basis functions,    92 primitive gaussians,    60 cartesian basis functions
     9 alpha electrons        9 beta electrons
       nuclear repulsion energy        42.0068918240 Hartrees.
 IExCor= 1009 DFT=T Ex+Corr=PBE1PBE ExCW=0 ScaHFX=  0.250000
 ScaDFX=  0.750000  0.750000  1.000000  1.000000 ScalE2=  1.000000  1.000000
 IRadAn=      0 IRanWt=     -1 IRanGd=            0 ICorTp=0 IEmpDi=  4
 NAtoms=    8 NActive=    8 NUniq=    2 SFac= 4.00D+00 NAtFMM=   60 NAOKFM=F Big=F
 Integral buffers will be    131072 words long.
 Raffenetti 2 integral format.
 Two-electron integral symmetry is turned on.
 Leave Link  301 at Wed Mar 18 11:27:52 2015, MaxMem=    33554432 cpu:         0.1
 (Enter /usr/local/research/Gaussian09/g09-revD.01/g09/l302.exe)
 NPDir=0 NMtPBC=     1 NCelOv=     1 NCel=       1 NClECP=     1 NCelD=      1
         NCelK=      1 NCelE2=     1 NClLst=     1 CellRange=     0.0.
 One-electron integrals computed using PRISM.
 One-electron integral symmetry used in STVInt
   6 Symmetry operations used in ECPInt.
 ECPInt:  NShTT=     465 NPrTT=    1529 LenC2=     466 LenP2D=    1445.
 LDataN:  DoStor=T MaxTD1= 4 Len=   56
 NBasis=    58 RedAO= T EigKep=  3.21D-03  NBF=    29    29
 NBsUse=    58 1.00D-06 EigRej= -1.00D+00 NBFU=    29    29
 Precomputing XC quadrature grid using
 IXCGrd= 4 IRadAn=           0 IRanWt=          -1 IRanGd=           0 AccXCQ= 0.00D+00.
 Generated NRdTot=       0 NPtTot=           0 NUsed=           0 NTot=          32
 NSgBfM=    60    60    60    60    60 MxSgAt=     8 MxSgA2=     8.
 Leave Link  302 at Wed Mar 18 11:27:53 2015, MaxMem=    33554432 cpu:         0.3
 (Enter /usr/local/research/Gaussian09/g09-revD.01/g09/l303.exe)
 DipDrv:  MaxL=1.
 Leave Link  303 at Wed Mar 18 11:27:53 2015, MaxMem=    33554432 cpu:         0.1
 (Enter /usr/local/research/Gaussian09/g09-revD.01/g09/l401.exe)
 Initial guess from the checkpoint file:  "g09-ethane.chk"
 B after Tr=     0.000000    0.000000    0.000000
         Rot=    1.000000    0.000000    0.000000    0.000000 Ang=   0.00 deg.
 Guess basis will be translated and rotated to current coordinates.
 JPrj=2 DoOrth=T DoCkMO=T.
 Initial guess orbital symmetries:
       Occupied  (A1) (A2) (A1) (A2) (E) (E) (A1) (E) (E)
       Virtual   (A1) (E) (A1) (E) (E) (E) (A1) (E) (A1) (E) (E)
                 (E) (A1) (E) (E) (A1) (E) (E) (E) (A1) (A1) (E)
                 (E) (E) (A2) (E) (E) (E) (E) (A2) (E) (A2) (E)
                 (E) (E) (A2) (A2) (E) (E) (A2) (E) (E) (E) (A2)
                 (A2) (E) (E) (E) (A2)
 The electronic state of the initial guess is 1-A1.
 Generating alternative initial guess.
 ExpMin= 1.22D-01 ExpMax= 1.24D+03 ExpMxC= 1.86D+02 IAcc=1 IRadAn=         1 AccDes= 0.00D+00
 Harris functional with IExCor= 1009 and IRadAn=       1 diagonalized for initial guess.
 HarFok:  IExCor= 1009 AccDes= 0.00D+00 IRadAn=         1 IDoV= 1 UseB2=F ITyADJ=14
 ICtDFT=  3500011 ScaDFX=  1.000000  1.000000  1.000000  1.000000
 FoFCou: FMM=F IPFlag=           0 FMFlag=      100000 FMFlg1=           0
         NFxFlg=           0 DoJE=T BraDBF=F KetDBF=T FulRan=T
         wScrn=  0.000000 ICntrl=     500 IOpCl=  0 I1Cent=   200000004 NGrid=           0
         NMat0=    1 NMatS0=      1 NMatT0=    0 NMatD0=    1 NMtDS0=    0 NMtDT0=    0
 Petite list used in FoFCou.
 Harris En= -79.7361308609833    
 Leave Link  401 at Wed Mar 18 11:27:53 2015, MaxMem=    33554432 cpu:         0.5
 (Enter /usr/local/research/Gaussian09/g09-revD.01/g09/l502.exe)
 Closed shell SCF:
 Using DIIS extrapolation, IDIIS=  1040.
 Integral symmetry usage will be decided dynamically.
 Keep R1 ints in memory in symmetry-blocked form, NReq=2380384.
 IVT=       30386 IEndB=       30386 NGot=    33554432 MDV=    32787273
 LenX=    32787273 LenY=    32783232
 Requested convergence on RMS density matrix=1.00D-08 within 128 cycles.
 Requested convergence on MAX density matrix=1.00D-06.
 Requested convergence on             energy=1.00D-06.
 No special actions if energy rises.
 FoFCou: FMM=F IPFlag=           0 FMFlag=           0 FMFlg1=           0
         NFxFlg=           0 DoJE=F BraDBF=F KetDBF=F FulRan=T
         wScrn=  0.000000 ICntrl=     600 IOpCl=  0 I1Cent=           0 NGrid=           0
         NMat0=    1 NMatS0=   1711 NMatT0=    0 NMatD0=    1 NMtDS0=    0 NMtDT0=    0
 Petite list used in FoFCou.
 Integral accuracy reduced to 1.0D-05 until final iterations.

 Cycle   1  Pass 0  IDiag  1:
 E= -79.6629874729515    
 DIIS: error= 3.73D-03 at cycle   1 NSaved=   1.
 NSaved= 1 IEnMin= 1 EnMin= -79.6629874729515     IErMin= 1 ErrMin= 3.73D-03
 ErrMax= 3.73D-03  0.00D+00 EMaxC= 1.00D-01 BMatC= 6.67D-04 BMatP= 6.67D-04
 IDIUse=3 WtCom= 9.63D-01 WtEn= 3.73D-02
 Coeff-Com:  0.100D+01
 Coeff-En:   0.100D+01
 Coeff:      0.100D+01
 Gap=     0.660 Goal=   None    Shift=    0.000
 GapD=    0.660 DampG=2.000 DampE=1.000 DampFc=2.0000 IDamp=-1.
 RMSDP=7.96D-04 MaxDP=9.25D-03              OVMax= 9.24D-03

 Cycle   2  Pass 0  IDiag  1:
 E= -79.6637402644265     Delta-E=       -0.000752791475 Rises=F Damp=F
 DIIS: error= 1.35D-03 at cycle   2 NSaved=   2.
 NSaved= 2 IEnMin= 2 EnMin= -79.6637402644265     IErMin= 2 ErrMin= 1.35D-03
 ErrMax= 1.35D-03  0.00D+00 EMaxC= 1.00D-01 BMatC= 8.37D-05 BMatP= 6.67D-04
 IDIUse=3 WtCom= 9.87D-01 WtEn= 1.35D-02
 Coeff-Com:  0.156D+00 0.844D+00
 Coeff-En:   0.000D+00 0.100D+01
 Coeff:      0.154D+00 0.846D+00
 Gap=     0.428 Goal=   None    Shift=    0.000
 RMSDP=2.60D-04 MaxDP=3.94D-03 DE=-7.53D-04 OVMax= 3.99D-03

 Cycle   3  Pass 0  IDiag  1:
 E= -79.6637819997072     Delta-E=       -0.000041735281 Rises=F Damp=F
 DIIS: error= 1.05D-03 at cycle   3 NSaved=   3.
 NSaved= 3 IEnMin= 3 EnMin= -79.6637819997072     IErMin= 3 ErrMin= 1.05D-03
 ErrMax= 1.05D-03  0.00D+00 EMaxC= 1.00D-01 BMatC= 5.00D-05 BMatP= 8.37D-05
 IDIUse=3 WtCom= 9.89D-01 WtEn= 1.05D-02
 Coeff-Com: -0.291D-03 0.434D+00 0.566D+00
 Coeff-En:   0.000D+00 0.355D+00 0.645D+00
 Coeff:     -0.288D-03 0.433D+00 0.567D+00
 Gap=     0.427 Goal=   None    Shift=    0.000
 RMSDP=1.05D-04 MaxDP=1.50D-03 DE=-4.17D-05 OVMax= 1.83D-03

 Cycle   4  Pass 0  IDiag  1:
 E= -79.6638348403713     Delta-E=       -0.000052840664 Rises=F Damp=F
 DIIS: error= 1.26D-04 at cycle   4 NSaved=   4.
 NSaved= 4 IEnMin= 4 EnMin= -79.6638348403713     IErMin= 4 ErrMin= 1.26D-04
 ErrMax= 1.26D-04  0.00D+00 EMaxC= 1.00D-01 BMatC= 2.52D-07 BMatP= 5.00D-05
 IDIUse=3 WtCom= 9.99D-01 WtEn= 1.26D-03
 Coeff-Com: -0.427D-02 0.882D-01 0.136D+00 0.780D+00
 Coeff-En:   0.000D+00 0.000D+00 0.000D+00 0.100D+01
 Coeff:     -0.426D-02 0.880D-01 0.136D+00 0.780D+00
 Gap=     0.427 Goal=   None    Shift=    0.000
 RMSDP=8.59D-06 MaxDP=6.25D-05 DE=-5.28D-05 OVMax= 1.95D-04

 Initial convergence to 1.0D-05 achieved.  Increase integral accuracy.
 Cycle   5  Pass 1  IDiag  1:
 E= -79.6638648916829     Delta-E=       -0.000030051312 Rises=F Damp=F
 DIIS: error= 1.21D-05 at cycle   1 NSaved=   1.
 NSaved= 1 IEnMin= 1 EnMin= -79.6638648916829     IErMin= 1 ErrMin= 1.21D-05
 ErrMax= 1.21D-05  0.00D+00 EMaxC= 1.00D-01 BMatC= 3.24D-09 BMatP= 3.24D-09
 IDIUse=1 WtCom= 1.00D+00 WtEn= 0.00D+00
 Coeff-Com:  0.100D+01
 Coeff:      0.100D+01
 Gap=     0.427 Goal=   None    Shift=    0.000
 RMSDP=8.59D-06 MaxDP=6.25D-05 DE=-3.01D-05 OVMax= 2.36D-05

 Cycle   6  Pass 1  IDiag  1:
 E= -79.6638648931271     Delta-E=       -0.000000001444 Rises=F Damp=F
 DIIS: error= 8.22D-06 at cycle   2 NSaved=   2.
 NSaved= 2 IEnMin= 2 EnMin= -79.6638648931271     IErMin= 2 ErrMin= 8.22D-06
 ErrMax= 8.22D-06  0.00D+00 EMaxC= 1.00D-01 BMatC= 1.86D-09 BMatP= 3.24D-09
 IDIUse=1 WtCom= 1.00D+00 WtEn= 0.00D+00
 Coeff-Com:  0.422D+00 0.578D+00
 Coeff:      0.422D+00 0.578D+00
 Gap=     0.427 Goal=   None    Shift=    0.000
 RMSDP=7.31D-07 MaxDP=1.02D-05 DE=-1.44D-09 OVMax= 1.28D-05

 Cycle   7  Pass 1  IDiag  1:
 E= -79.6638648949372     Delta-E=       -0.000000001810 Rises=F Damp=F
 DIIS: error= 1.47D-06 at cycle   3 NSaved=   3.
 NSaved= 3 IEnMin= 3 EnMin= -79.6638648949372     IErMin= 3 ErrMin= 1.47D-06
 ErrMax= 1.47D-06  0.00D+00 EMaxC= 1.00D-01 BMatC= 9.65D-11 BMatP= 1.86D-09
 IDIUse=1 WtCom= 1.00D+00 WtEn= 0.00D+00
 Coeff-Com:  0.808D-01 0.221D+00 0.699D+00
 Coeff:      0.808D-01 0.221D+00 0.699D+00
 Gap=     0.427 Goal=   None    Shift=    0.000
 RMSDP=1.68D-07 MaxDP=2.26D-06 DE=-1.81D-09 OVMax= 2.81D-06

 Cycle   8  Pass 1  IDiag  1:
 E= -79.6638648950388     Delta-E=       -0.000000000102 Rises=F Damp=F
 DIIS: error= 1.75D-07 at cycle   4 NSaved=   4.
 NSaved= 4 IEnMin= 4 EnMin= -79.6638648950388     IErMin= 4 ErrMin= 1.75D-07
 ErrMax= 1.75D-07  0.00D+00 EMaxC= 1.00D-01 BMatC= 1.00D-12 BMatP= 9.65D-11
 IDIUse=1 WtCom= 1.00D+00 WtEn= 0.00D+00
 Coeff-Com: -0.646D-02 0.839D-02 0.115D+00 0.883D+00
 Coeff:     -0.646D-02 0.839D-02 0.115D+00 0.883D+00
 Gap=     0.427 Goal=   None    Shift=    0.000
 RMSDP=1.62D-08 MaxDP=2.62D-07 DE=-1.02D-10 OVMax= 3.59D-07

 Cycle   9  Pass 1  IDiag  1:
 E= -79.6638648950395     Delta-E=       -0.000000000001 Rises=F Damp=F
 DIIS: error= 1.03D-08 at cycle   5 NSaved=   5.
 NSaved= 5 IEnMin= 5 EnMin= -79.6638648950395     IErMin= 5 ErrMin= 1.03D-08
 ErrMax= 1.03D-08  0.00D+00 EMaxC= 1.00D-01 BMatC= 2.89D-15 BMatP= 1.00D-12
 IDIUse=1 WtCom= 1.00D+00 WtEn= 0.00D+00
 Coeff-Com: -0.525D-03-0.162D-02-0.886D-02 0.579D-02 0.101D+01
 Coeff:     -0.525D-03-0.162D-02-0.886D-02 0.579D-02 0.101D+01
 Gap=     0.427 Goal=   None    Shift=    0.000
 RMSDP=1.49D-09 MaxDP=1.46D-08 DE=-6.82D-13 OVMax= 2.47D-08

 SCF Done:  E(RPBE1PBE) =  -79.6638648950     A.U. after    9 cycles
            NFock=  9  Conv=0.15D-08     -V/T= 2.0137
 KE= 7.858389796539D+01 PE=-2.673071112139D+02 EE= 6.705245652944D+01
 Leave Link  502 at Wed Mar 18 11:27:55 2015, MaxMem=    33554432 cpu:         1.9
 (Enter /usr/local/research/Gaussian09/g09-revD.01/g09/l701.exe)
 Compute integral first derivatives.
 ... and contract with generalized density number  0.
 DipInt: DoE/N= T T RetVal/Mat= T F Init=T NMatP=  1 IDeriv=0 Min/MaxMlt=  1  1
 Entering OneElI...
 Multipole integrals L=1 to 1 MinM= 0 MaxM= 0.
 Requested accuracy = 0.1000D-12
 PrsmSu:  NPrtUS=   1 ThrOK=F IAlg=1 NPAlg=1 LenDen=           0.
 Prism:   IPart=     0 DynPar=F LinDyn=F Incr=           4.
 PRISM was handed    33518613 working-precision words and   465 shell-pairs
 IPart=  0 NShTot=         465 NBatch=          25 AvBLen=        18.6
 PrSmSu:  NxtVal=              5.
 Entering OneElI...
 Calculate overlap and kinetic energy integrals
    NBasis =  60  MinDer = 1  MaxDer = 1
 Requested accuracy = 0.1000D-12
 PrsmSu:  NPrtUS=   1 ThrOK=F IAlg=1 NPAlg=1 LenDen=           0.
 Prism:   IPart=     0 DynPar=F LinDyn=F Incr=           4.
 PRISM was handed    33514024 working-precision words and   465 shell-pairs
 IPart=  0 NShTot=         465 NBatch=          30 AvBLen=        15.5
 PrSmSu:  NxtVal=              5.
 Entering OneElI...
 Calculate potential energy integrals
    NBasis =  60  MinDer = 1  MaxDer = 1
 Requested accuracy = 0.1000D-12
 PrsmSu:  NPrtUS=   1 ThrOK=F IAlg=1 NPAlg=1 LenDen=           0.
 Prism:   IPart=     0 DynPar=F LinDyn=F Incr=          37.
 PRISM was handed    33518191 working-precision words and   465 shell-pairs
 IPart=  0 NShTot=        3720 NBatch=         465 AvBLen=         8.0
 PrSmSu:  NxtVal=             38.
   6 Symmetry operations used in ECPInt.
 ECPInt:  NShTT=     465 NPrTT=    1529 LenC2=     466 LenP2D=    1445.
 LDataN:  DoStor=F MaxTD1= 5 Len=  102
 LDataN:  DoStor=T MaxTD1= 5 Len=  102
 ECPSu:  NPrtUS=   1 ThrOK=F
 FXYZ after ECPSu
 I=    0 X=   0.000000000000D+00 Y=   0.000000000000D+00 Z=   0.000000000000D+00
 I=    1 X=   0.000000000000D+00 Y=   0.000000000000D+00 Z=   0.000000000000D+00
 I=    2 X=   0.000000000000D+00 Y=   0.000000000000D+00 Z=   0.000000000000D+00
 I=    3 X=   0.000000000000D+00 Y=   0.000000000000D+00 Z=   0.000000000000D+00
 I=    4 X=   0.000000000000D+00 Y=   0.000000000000D+00 Z=   0.000000000000D+00
 I=    5 X=   0.000000000000D+00 Y=   0.000000000000D+00 Z=   0.000000000000D+00
 I=    6 X=   0.000000000000D+00 Y=   0.000000000000D+00 Z=   0.000000000000D+00
 I=    7 X=   0.000000000000D+00 Y=   0.000000000000D+00 Z=   0.000000000000D+00
 I=    8 X=   0.000000000000D+00 Y=   0.000000000000D+00 Z=   0.000000000000D+00
 l701 out
 I=    0 X=   0.000000000000D+00 Y=   0.000000000000D+00 Z=   0.000000000000D+00
 I=    1 X=   0.000000000000D+00 Y=   0.000000000000D+00 Z=   3.771381519156D+00
 I=    2 X=  -1.349260964146D+00 Y=   2.337404928049D+00 Z=   1.194902385696D+00
 I=    3 X=   2.698882528695D+00 Y=  -2.081927393083D-04 Z=   1.194902385696D+00
 I=    4 X=  -1.349621564549D+00 Y=  -2.337196735310D+00 Z=   1.194902385696D+00
 I=    5 X=   0.000000000000D+00 Y=   0.000000000000D+00 Z=  -3.771381519156D+00
 I=    6 X=   1.349260964146D+00 Y=   2.337404928049D+00 Z=  -1.194902385696D+00
 I=    7 X=   1.349621564549D+00 Y=  -2.337196735310D+00 Z=  -1.194902385696D+00
 I=    8 X=  -2.698882528695D+00 Y=  -2.081927393013D-04 Z=  -1.194902385696D+00
 Leave Link  701 at Wed Mar 18 11:27:55 2015, MaxMem=    33554432 cpu:         0.2
 (Enter /usr/local/research/Gaussian09/g09-revD.01/g09/l702.exe)
 L702 exits ... SP integral derivatives will be done elsewhere.
 Leave Link  702 at Wed Mar 18 11:27:55 2015, MaxMem=    33554432 cpu:         0.1
 (Enter /usr/local/research/Gaussian09/g09-revD.01/g09/l703.exe)
 Compute integral first derivatives, UseDBF=F ICtDFT=           0.
 Integral derivatives from FoFJK, PRISM(SPDF).
 ICntrl=      2127.
 Calling FoFJK, ICntrl=      2127 FMM=F ISym2X=1 I1Cent= 0 IOpClX= 0 NMat=1 NMatS=1 NMatT=0.
 FoFJK:  IHMeth= 1 ICntrl=    2127 DoSepK=F KAlg= 0 I1Cent=   0 FoldK=F
 IRaf=         0 NMat=   1 IRICut=       1 DoRegI=T DoRafI=F ISym2E= 1.
 FoFCou: FMM=F IPFlag=           0 FMFlag=      100000 FMFlg1=         800
         NFxFlg=           0 DoJE=F BraDBF=F KetDBF=F FulRan=T
         wScrn=  0.000000 ICntrl=    2127 IOpCl=  0 I1Cent=           0 NGrid=           0
         NMat0=    1 NMatS0=      1 NMatT0=    0 NMatD0=    1 NMtDS0=    0 NMtDT0=    0
 Petite list used in FoFCou.
 FoFCou:  KetSym=F NOpSet=  6 NOpAb=2 NOp=  6.
 FoFCou:  CnvScl= 1.00D+00 Thresh= 1.00D-10 IAcrcy=      10.
 PrismS was handed    33515352 working-precision words and   465 shell-pairs
 FoFCou: LinMIO=F DoNuc=F BraDBF=F KetDBF=F HaveP=T PDBF=F HaveZ=T HaveW=F
         NIJTC =       6 NIJTAt=       0 NIJTCD=       0 NIJTT =       6
         IJTBeg=       1 IJTEnd=       6 KLTBeg=       1 KLTEnd=       6
         IPTBeg=       1 IPTEnd=       6 IPTBCv=       1 IPTECv=       6
         IZTBeg=       1 IZTEnd=       6 IZTBCv=       1 IZTECv=       6
         IWTBeg=       7 IWTEnd=       6 IWTBCv=       7 IWTECv=       6
         INTBeg=       1 INTEnd=       0 IFTBCv=       1 IFTECv=       6
 NCel replicated for PrismC:     1
 CoulSu:  IncDef=  1024 NBBP=         108345 NTPThr=   100 NPartT=    1 Incr=        1024 LDynOK=F.
 CoulSu:  NPrtUS=   1 ThrOK=F IAlg=1 NPAlg=1 LenDen=           0 LWGrdD=           0 DoCopy=F.
 Enter PrismC: JobTyp=21 DoJE=F Cont=F.
 PrismC:  IPart=     0 DynPar=F LinDyn=F Incr=        1024 UseFst=F UseS4=T IGathr=2.
 PrismC was handed    33514848 working-precision words and   465 shell-pairs
 IPart=  0 NShTot=       19220 NShNF=       19220 NShFF=           0 NBatch=         582 AvBLen=        33.0
 CoulSu:  NxtVal=           1025.
 ReadGW:  IGet=0 IStart=           1 Next=           1 LGW=           0.
 Remaining memory in FofDFT       32.00 Mw
 CkSvGd:  ISavGI=        -1 IRadAn=       4 IRASav=       0 ISavGd=        -1.
 CalDSu:  NPrtUS=   1 ThrOK=F IAlg=1 NPAlg=1 DoDPD=F LenP=        1830 LenD1P=             0.
 IPart=  0 IRanGd=          0 ScrnBf=T ScrnGd=T RCrit=4.00D+00 DoMicB=T.
 IPart=  0        14129 of        15630 points in      32 batches and      104 microbatches, Max-NSigAt=       8 Max-NSgAt2=       8
 Forces at end of L703
 I=    0 X=   0.000000000000D+00 Y=   0.000000000000D+00 Z=   0.000000000000D+00
 I=    1 X=   0.000000000000D+00 Y=   0.000000000000D+00 Z=   1.058855336477D-02
 I=    2 X=   4.201009690674D-05 Y=  -7.165299553691D-05 Z=  -1.436790015889D-03
 I=    3 X=  -8.305836283773D-05 Y=  -5.553133758258D-07 Z=  -1.436790015876D-03
 I=    4 X=   4.104826593609D-05 Y=   7.220830890819D-05 Z=  -1.436790015888D-03
 I=    5 X=   0.000000000000D+00 Y=   0.000000000000D+00 Z=  -1.058855336477D-02
 I=    6 X=  -4.201009691429D-05 Y=  -7.165299553691D-05 Z=   1.436790015890D-03
 I=    7 X=  -4.104826593765D-05 Y=   7.220830891219D-05 Z=   1.436790015893D-03
 I=    8 X=   8.305836284217D-05 Y=  -5.553133692687D-07 Z=   1.436790015878D-03
 Leave Link  703 at Wed Mar 18 11:27:56 2015, MaxMem=    33554432 cpu:         0.8
 (Enter /usr/local/research/Gaussian09/g09-revD.01/g09/l716.exe)
 FrcOut:
 IF    =   305 IFX   =   333 IFXYZ =   357
 IFFX  =   381 IFFFX =   381 IFLen =    28
 IFFLen=     0 IFFFLn=     0 IEDerv=   381
 LEDerv=  1205 IFroze=  1868 ICStrt=  8809
 Dipole        = 2.60191334D-16 7.64822638D-16 1.77635684D-15
 Forces in standard orientation:
 -------------------------------------------------------------------
 Center     Atomic                   Forces (Hartrees/Bohr)
 Number     Number              X              Y              Z
 -------------------------------------------------------------------
      1        6           0.000000000    0.000000000    0.010588553
      2        1           0.000042010   -0.000071653   -0.001436790
      3        1          -0.000083058   -0.000000555   -0.001436790
      4        1           0.000041048    0.000072208   -0.001436790
      5        6           0.000000000    0.000000000   -0.010588553
      6        1          -0.000042010   -0.000071653    0.001436790
      7        1          -0.000041048    0.000072208    0.001436790
      8        1           0.000083058   -0.000000555    0.001436790
 -------------------------------------------------------------------
 ***** Axes restored to original set *****
 Rotating derivatives, DoTrsp=F IDiff=-1 LEDeriv=   1204 LFDPrp=       0 LDFDPr=       0.
 -------------------------------------------------------------------
 Center     Atomic                   Forces (Hartrees/Bohr)
 Number     Number              X              Y              Z
 -------------------------------------------------------------------
      1        6           0.003529578    0.004991445    0.008645520
      2        1          -0.000440245   -0.000746681   -0.001148876
      3        1          -0.000439324   -0.000622257   -0.001221088
      4        1          -0.000557246   -0.000662971   -0.001149439
      5        6          -0.003529578   -0.004991445   -0.008645520
      6        1           0.000557246    0.000663933    0.001148884
      7        1           0.000439338    0.000746361    0.001149431
      8        1           0.000440230    0.000621615    0.001221088
 -------------------------------------------------------------------
 Cartesian Forces:  Max     0.008645520 RMS     0.003140213
 Final forces over variables, Energy=-7.96638649D+01:
  2.15040271D-02 2.15040271D-02 2.15040271D-02-2.97207353D-03
  2.15040271D-02 2.15040271D-02 2.15040271D-02-4.17128274D-03
 -4.17128274D-03 4.17128581D-03-4.17128274D-03 4.17128581D-03
  4.17128581D-03 4.17128581D-03 4.17128581D-03 4.17128581D-03
 -4.17128274D-03-4.17128274D-03-4.17128274D-03 4.85095918D-07
  4.85095914D-07 4.85095915D-07 4.85095917D-07 4.85095913D-07
  4.85095913D-07 4.85095916D-07 4.85095912D-07 4.85095913D-07
 Leave Link  716 at Wed Mar 18 11:27:56 2015, MaxMem=    33554432 cpu:         0.1
 (Enter /usr/local/research/Gaussian09/g09-revD.01/g09/l103.exe)

 GradGradGradGradGradGradGradGradGradGradGradGradGradGradGradGradGradGrad
 Berny optimization.
 Using GEDIIS/GDIIS optimizer.
 FormGI is forming the generalized inverse of G from B-inverse, IUseBI=4.
 Internal  Forces:  Max     0.006278183 RMS     0.001496972
 Search for a local minimum.
 Step number   2 out of a maximum of   38
 All quantities printed in internal units (Hartrees-Bohrs-Radians)
 RMS Force = .14970D-02 SwitMx=.10000D-02 MixMth= 1
 Mixed Optimization -- RFO/linear search
 Update second derivatives using D2CorX and points    1    2
 DE= -4.50D-03 DEPred=-4.39D-03 R= 1.03D+00
 TightC=F SS=  1.41D+00  RLast= 1.63D-01 DXNew= 5.0454D-01 4.8907D-01
 Trust test= 1.03D+00 RLast= 1.63D-01 DXMaxT set to 4.89D-01
 ITU=  1  0
 Use linear search instead of GDIIS.
     Eigenvalues ---    0.00237   0.05461   0.05461   0.05461   0.05461
     Eigenvalues ---    0.14669   0.16000   0.16000   0.16000   0.16000
     Eigenvalues ---    0.16000   0.27388   0.37230   0.37230   0.37230
     Eigenvalues ---    0.37230   0.37230   0.40095
 RFO step:  Lambda=-2.70525064D-04 EMin= 2.36825036D-03
 Quartic linear search produced a step of  0.09092.
 Iteration  1 RMS(Cart)=  0.00525918 RMS(Int)=  0.00006397
 Iteration  2 RMS(Cart)=  0.00005046 RMS(Int)=  0.00004752
 Iteration  3 RMS(Cart)=  0.00000000 RMS(Int)=  0.00004752
 ITry= 1 IFail=0 DXMaxC= 9.94D-03 DCOld= 1.00D+10 DXMaxT= 4.89D-01 DXLimC= 3.00D+00 Rises=F
 ClnCor:  largest displacement from symmetrization is 4.45D-13 for atom     4.
 Variable       Old X    -DE/DX   Delta X   Delta X   Delta X     New X
                                 (Linear)    (Quad)   (Total)
    R1        2.07847   0.00059   0.00513  -0.00150   0.00364   2.08211
    R2        2.07847   0.00059   0.00513  -0.00150   0.00364   2.08211
    R3        2.07847   0.00059   0.00513  -0.00150   0.00364   2.08211
    R4        2.90006  -0.00628  -0.00092  -0.02343  -0.02435   2.87571
    R5        2.07847   0.00059   0.00513  -0.00150   0.00364   2.08211
    R6        2.07847   0.00059   0.00513  -0.00150   0.00364   2.08211
    R7        2.07847   0.00059   0.00513  -0.00150   0.00364   2.08211
    A1        1.88558  -0.00136  -0.00228  -0.00796  -0.01031   1.87527
    A2        1.88558  -0.00136  -0.00228  -0.00796  -0.01031   1.87527
    A3        1.93506   0.00130   0.00222   0.00758   0.00973   1.94479
    A4        1.88558  -0.00136  -0.00228  -0.00796  -0.01031   1.87527
    A5        1.93506   0.00130   0.00222   0.00758   0.00973   1.94479
    A6        1.93506   0.00130   0.00222   0.00758   0.00973   1.94479
    A7        1.93506   0.00130   0.00222   0.00758   0.00973   1.94479
    A8        1.93506   0.00130   0.00222   0.00758   0.00973   1.94479
    A9        1.93506   0.00130   0.00222   0.00758   0.00973   1.94479
   A10        1.88558  -0.00136  -0.00228  -0.00796  -0.01031   1.87527
   A11        1.88558  -0.00136  -0.00228  -0.00796  -0.01031   1.87527
   A12        1.88558  -0.00136  -0.00228  -0.00796  -0.01031   1.87527
    D1        1.04705   0.00000   0.00000   0.00017   0.00018   1.04723
    D2        3.14144   0.00000   0.00000   0.00017   0.00018  -3.14157
    D3       -1.04735   0.00000   0.00000   0.00017   0.00018  -1.04717
    D4       -1.04735   0.00000   0.00000   0.00017   0.00018  -1.04717
    D5        1.04705   0.00000   0.00000   0.00017   0.00018   1.04723
    D6        3.14144   0.00000   0.00000   0.00017   0.00018  -3.14157
    D7        3.14144   0.00000   0.00000   0.00017   0.00018  -3.14157
    D8       -1.04735   0.00000   0.00000   0.00017   0.00018  -1.04717
    D9        1.04705   0.00000   0.00000   0.00017   0.00018   1.04723
         Item               Value     Threshold  Converged?
 Maximum Force            0.006278     0.000450     NO 
 RMS     Force            0.001497     0.000300     NO 
 Maximum Displacement     0.009939     0.001800     NO 
 RMS     Displacement     0.005256     0.001200     NO 
 Predicted change in Energy=-1.580831D-04
 Lowest energy point so far.  Saving SCF results.
 GradGradGradGradGradGradGradGradGradGradGradGradGradGradGradGradGradGrad

 Leave Link  103 at Wed Mar 18 11:27:56 2015, MaxMem=    33554432 cpu:         0.0
 (Enter /usr/local/research/Gaussian09/g09-revD.01/g09/l202.exe)
                          Input orientation:                          
 ---------------------------------------------------------------------
 Center     Atomic      Atomic             Coordinates (Angstroms)
 Number     Number       Type             X           Y           Z
 ---------------------------------------------------------------------
      1          6           0       -0.636230   -0.003312    0.007445
      2          1           0       -0.287019   -1.047804   -0.025084
      3          1           0       -0.286815    0.490626   -0.913372
      4          1           0       -1.737390   -0.022013   -0.025197
      5          6           0       -0.128967    0.714047    1.249960
      6          1           0        0.972193    0.732773    1.282588
      7          1           0       -0.478200    1.758531    1.282503
      8          1           0       -0.478359    0.220093    2.170777
 ---------------------------------------------------------------------
                    Distance matrix (angstroms):
                    1          2          3          4          5
     1  C    0.000000
     2  H    1.101803   0.000000
     3  H    1.101803   1.776463   0.000000
     4  H    1.101803   1.776463   1.776463   0.000000
     5  C    1.521762   2.180558   2.180558   2.180558   0.000000
     6  H    2.180558   2.542848   2.542829   3.101910   1.101803
     7  H    2.180558   3.101910   2.542848   2.542829   1.101803
     8  H    2.180558   2.542829   3.101910   2.542848   1.101803
                    6          7          8
     6  H    0.000000
     7  H    1.776463   0.000000
     8  H    1.776463   1.776463   0.000000
 Stoichiometry    C2H6
 Framework group  D3[C3(C.C),X(H6)]
 Deg. of freedom     4
 Full point group                 D3      NOp   6
 RotChk:  IX=0 Diff= 1.41D+00
 Largest Abelian subgroup         C2      NOp   2
 Largest concise Abelian subgroup C2      NOp   2
                         Standard orientation:                         
 ---------------------------------------------------------------------
 Center     Atomic      Atomic             Coordinates (Angstroms)
 Number     Number       Type             X           Y           Z
 ---------------------------------------------------------------------
      1          6           0        0.000000    0.000000    0.760881
      2          1           0        0.512808    0.888238    1.163410
      3          1           0        0.512833   -0.888224    1.163410
      4          1           0       -1.025641   -0.000014    1.163410
      5          6           0        0.000000    0.000000   -0.760881
      6          1           0        1.025641   -0.000014   -1.163410
      7          1           0       -0.512833   -0.888224   -1.163410
      8          1           0       -0.512808    0.888238   -1.163410
 ---------------------------------------------------------------------
 Rotational constants (GHZ):     79.4492454     20.0072779     20.0072779
 Leave Link  202 at Wed Mar 18 11:27:56 2015, MaxMem=    33554432 cpu:         0.0
 (Enter /usr/local/research/Gaussian09/g09-revD.01/g09/l301.exe)
 Standard basis: def2SVP (5D, 7F)
 Ernie: Thresh=  0.10000D-02 Tol=  0.10000D-05 Strict=F.
 There are    30 symmetry adapted cartesian basis functions of A   symmetry.
 There are    30 symmetry adapted cartesian basis functions of B   symmetry.
 There are    29 symmetry adapted basis functions of A   symmetry.
 There are    29 symmetry adapted basis functions of B   symmetry.
    58 basis functions,    92 primitive gaussians,    60 cartesian basis functions
     9 alpha electrons        9 beta electrons
       nuclear repulsion energy        42.0930051112 Hartrees.
 IExCor= 1009 DFT=T Ex+Corr=PBE1PBE ExCW=0 ScaHFX=  0.250000
 ScaDFX=  0.750000  0.750000  1.000000  1.000000 ScalE2=  1.000000  1.000000
 IRadAn=      0 IRanWt=     -1 IRanGd=            0 ICorTp=0 IEmpDi=  4
 NAtoms=    8 NActive=    8 NUniq=    2 SFac= 4.00D+00 NAtFMM=   60 NAOKFM=F Big=F
 Integral buffers will be    131072 words long.
 Raffenetti 2 integral format.
 Two-electron integral symmetry is turned on.
 Leave Link  301 at Wed Mar 18 11:27:56 2015, MaxMem=    33554432 cpu:         0.1
 (Enter /usr/local/research/Gaussian09/g09-revD.01/g09/l302.exe)
 NPDir=0 NMtPBC=     1 NCelOv=     1 NCel=       1 NClECP=     1 NCelD=      1
         NCelK=      1 NCelE2=     1 NClLst=     1 CellRange=     0.0.
 One-electron integrals computed using PRISM.
 One-electron integral symmetry used in STVInt
   6 Symmetry operations used in ECPInt.
 ECPInt:  NShTT=     465 NPrTT=    1529 LenC2=     466 LenP2D=    1445.
 LDataN:  DoStor=T MaxTD1= 4 Len=   56
 NBasis=    58 RedAO= T EigKep=  3.15D-03  NBF=    29    29
 NBsUse=    58 1.00D-06 EigRej= -1.00D+00 NBFU=    29    29
 Precomputing XC quadrature grid using
 IXCGrd= 4 IRadAn=           0 IRanWt=          -1 IRanGd=           0 AccXCQ= 0.00D+00.
 Generated NRdTot=       0 NPtTot=           0 NUsed=           0 NTot=          32
 NSgBfM=    60    60    60    60    60 MxSgAt=     8 MxSgA2=     8.
 Leave Link  302 at Wed Mar 18 11:27:57 2015, MaxMem=    33554432 cpu:         0.3
 (Enter /usr/local/research/Gaussian09/g09-revD.01/g09/l303.exe)
 DipDrv:  MaxL=1.
 Leave Link  303 at Wed Mar 18 11:27:57 2015, MaxMem=    33554432 cpu:         0.1
 (Enter /usr/local/research/Gaussian09/g09-revD.01/g09/l401.exe)
 Initial guess from the checkpoint file:  "g09-ethane.chk"
 B after Tr=     0.000000    0.000000    0.000000
         Rot=    0.866025    0.000000    0.000000    0.500000 Ang=  60.00 deg.
 Guess basis will be translated and rotated to current coordinates.
 JPrj=2 DoOrth=T DoCkMO=T.
 Initial guess orbital symmetries:
       Occupied  (A1) (A2) (A1) (A2) (E) (E) (A1) (E) (E)
       Virtual   (A1) (E) (A1) (E) (E) (A1) (E) (E) (A1) (E) (E)
                 (E) (A1) (E) (E) (A1) (E) (E) (E) (A1) (A1) (E)
                 (E) (E) (A2) (E) (E) (E) (E) (A2) (E) (A2) (E)
                 (E) (E) (A2) (A2) (E) (E) (A2) (E) (E) (E) (A2)
                 (A2) (E) (E) (E) (A2)
 The electronic state of the initial guess is 1-A1.
 Leave Link  401 at Wed Mar 18 11:27:57 2015, MaxMem=    33554432 cpu:         0.2
 (Enter /usr/local/research/Gaussian09/g09-revD.01/g09/l502.exe)
 Closed shell SCF:
 Using DIIS extrapolation, IDIIS=  1040.
 Integral symmetry usage will be decided dynamically.
 Keep R1 ints in memory in symmetry-blocked form, NReq=2380384.
 IVT=       30386 IEndB=       30386 NGot=    33554432 MDV=    32787273
 LenX=    32787273 LenY=    32783232
 Requested convergence on RMS density matrix=1.00D-08 within 128 cycles.
 Requested convergence on MAX density matrix=1.00D-06.
 Requested convergence on             energy=1.00D-06.
 No special actions if energy rises.
 FoFCou: FMM=F IPFlag=           0 FMFlag=           0 FMFlg1=           0
         NFxFlg=           0 DoJE=F BraDBF=F KetDBF=F FulRan=T
         wScrn=  0.000000 ICntrl=     600 IOpCl=  0 I1Cent=           0 NGrid=           0
         NMat0=    1 NMatS0=   1711 NMatT0=    0 NMatD0=    1 NMtDS0=    0 NMtDT0=    0
 Petite list used in FoFCou.
 An orbital has undefined symmetry, so N**3 symmetry is turned off.

 Cycle   1  Pass 1  IDiag  1:
 E= -79.6640006174221    
 DIIS: error= 8.70D-04 at cycle   1 NSaved=   1.
 NSaved= 1 IEnMin= 1 EnMin= -79.6640006174221     IErMin= 1 ErrMin= 8.70D-04
 ErrMax= 8.70D-04  0.00D+00 EMaxC= 1.00D-01 BMatC= 3.24D-05 BMatP= 3.24D-05
[...]
     22 -0.817877D-02 -0.149853D-01  0.259447D-01  0.292081D-02  0.486003D-02
     23  0.931581D-03 -0.660291D-03 -0.139558D-02 -0.110569D-01 -0.117608D-01
     24 -0.121302D-02 -0.124984D-02  0.119206D-02 -0.776667D-03 -0.156075D-02
               21            22            23            24 
     21  0.491002D-01
     22 -0.996589D-02  0.764685D-01
     23  0.239954D-01  0.451917D-01  0.108424D+00
     24  0.119294D-02 -0.780167D-01 -0.110352D+00  0.253354D+00
 FormGI is forming the generalized inverse of G from B-inverse, IUseBI=4.
 Force constants in internal coordinates: 
                1             2             3             4             5 
      1  0.343307D+00
      2  0.101461D-02  0.343307D+00
      3  0.101473D-02  0.101473D-02  0.343308D+00
      4  0.436357D-02  0.436357D-02  0.436362D-02  0.310296D+00
      5  0.505050D-03  0.506002D-03 -0.910443D-03  0.436362D-02  0.343308D+00
      6 -0.909868D-03  0.505112D-03  0.506002D-03  0.436357D-02  0.101473D-02
      7  0.506063D-03 -0.909868D-03  0.505050D-03  0.436357D-02  0.101473D-02
      8  0.511416D-02  0.511487D-02  0.354724D-03 -0.157101D-01  0.273809D-03
      9  0.511491D-02  0.354878D-03  0.511376D-02 -0.157104D-01 -0.108310D-02
     10 -0.151008D-03 -0.484372D-02 -0.484487D-02  0.146063D-01 -0.110363D-02
     11  0.354878D-03  0.511420D-02  0.511447D-02 -0.157104D-01 -0.108283D-02
     12 -0.484509D-02 -0.151009D-03 -0.484350D-02  0.146063D-01 -0.110366D-02
     13 -0.484407D-02 -0.484544D-02 -0.150874D-03  0.146061D-01  0.396644D-02
     14 -0.110336D-02 -0.110339D-02  0.396644D-02  0.146061D-01 -0.150874D-03
     15  0.396666D-02 -0.110342D-02 -0.110366D-02  0.146063D-01 -0.484350D-02
     16 -0.110345D-02  0.396666D-02 -0.110363D-02  0.146063D-01 -0.484487D-02
     17 -0.108341D-02  0.273714D-03 -0.108283D-02 -0.157104D-01  0.511447D-02
     18  0.273715D-03 -0.108314D-02 -0.108310D-02 -0.157104D-01  0.511376D-02
     19 -0.108317D-02 -0.108344D-02  0.273809D-03 -0.157101D-01  0.354724D-03
     20 -0.582884D-03  0.368052D-02 -0.309713D-02  0.000000D+00 -0.583051D-03
     21  0.000000D+00  0.251559D-02 -0.251440D-02  0.000000D+00  0.251528D-02
     22  0.582045D-03  0.309785D-02 -0.367954D-02  0.000000D+00 -0.367954D-02
     23 -0.367964D-02  0.581918D-03  0.309769D-02  0.000000D+00  0.582085D-03
     24 -0.309730D-02 -0.583012D-03  0.368042D-02  0.000000D+00  0.368042D-02
     25 -0.251471D-02  0.000000D+00  0.251528D-02  0.000000D+00 -0.251440D-02
     26  0.251552D-02 -0.251464D-02  0.000000D+00  0.000000D+00  0.000000D+00
     27  0.309786D-02 -0.367957D-02  0.582085D-03  0.000000D+00  0.309769D-02
     28  0.368045D-02 -0.309731D-02 -0.583051D-03  0.000000D+00 -0.309713D-02
                6             7             8             9            10 
      6  0.343307D+00
      7  0.101461D-02  0.343307D+00
      8 -0.108344D-02 -0.108317D-02  0.505299D-01
      9 -0.108314D-02  0.273715D-03  0.893034D-02  0.505301D-01
     10  0.396666D-02 -0.110345D-02 -0.390114D-01 -0.390188D-01  0.999605D-01
     11  0.273714D-03 -0.108341D-02  0.893034D-02  0.893046D-02  0.144453D-01
     12 -0.110342D-02  0.396666D-02 -0.390186D-01  0.144453D-01 -0.204222D-01
     13 -0.110339D-02 -0.110336D-02  0.144455D-01 -0.390113D-01 -0.204218D-01
     14 -0.484544D-02 -0.484407D-02  0.424997D-02 -0.386606D-02 -0.660596D-02
     15 -0.151009D-03 -0.484509D-02 -0.386628D-02 -0.385858D-02  0.164551D-01
     16 -0.484372D-02 -0.151008D-03 -0.385864D-02  0.425007D-02 -0.661853D-02
     17  0.511420D-02  0.354878D-03  0.351157D-03  0.303729D-02 -0.386622D-02
     18  0.354878D-03  0.511491D-02  0.348939D-03  0.350969D-03  0.425007D-02
     19  0.511487D-02  0.511416D-02  0.303751D-02  0.348939D-03 -0.385864D-02
     20 -0.309731D-02  0.368045D-02  0.546331D-02 -0.475401D-02 -0.182159D-02
     21  0.000000D+00 -0.251471D-02  0.617457D-02 -0.617904D-02  0.354480D-05
     22  0.309785D-02  0.582045D-03  0.474963D-02 -0.546526D-02  0.182973D-02
     23 -0.367957D-02  0.309786D-02 -0.546514D-02  0.712959D-03 -0.662341D-02
     24 -0.583012D-03 -0.309730D-02 -0.475388D-02 -0.712073D-03 -0.479828D-02
     25  0.251559D-02  0.000000D+00 -0.617882D-02  0.171203D-05 -0.297209D-02
     26 -0.251464D-02  0.251552D-02  0.154355D-05  0.617461D-02  0.297103D-02
     27  0.581918D-03 -0.367964D-02  0.712806D-03  0.474958D-02  0.479616D-02
     28  0.368052D-02 -0.582884D-03 -0.712131D-03  0.546337D-02  0.662234D-02
               11            12            13            14            15 
     11  0.505301D-01
     12 -0.390116D-01  0.999605D-01
     13 -0.390185D-01 -0.204218D-01  0.999596D-01
     14 -0.385842D-02 -0.661858D-02  0.164549D-01  0.999596D-01
     15  0.425007D-02 -0.660591D-02 -0.661858D-02 -0.204218D-01  0.999605D-01
     16 -0.386622D-02  0.164551D-01 -0.660596D-02 -0.204218D-01 -0.204222D-01
     17  0.348751D-03  0.425007D-02 -0.385842D-02 -0.390185D-01 -0.390116D-01
     18  0.303729D-02 -0.385858D-02 -0.386606D-02 -0.390113D-01  0.144453D-01
     19  0.351157D-03 -0.386628D-02  0.424997D-02  0.144455D-01 -0.390186D-01
     20 -0.712284D-03  0.662239D-02 -0.479803D-02 -0.182167D-02 -0.479826D-02
     21  0.137510D-05  0.297108D-02 -0.297175D-02  0.297074D-02  0.350883D-05
     22  0.712749D-03  0.479617D-02 -0.662323D-02 -0.662323D-02  0.479617D-02
     23  0.474976D-02  0.182973D-02  0.479593D-02  0.182981D-02 -0.662336D-02
     24  0.546342D-02 -0.182158D-02  0.662221D-02  0.662221D-02 -0.182158D-02
     25  0.617479D-02  0.350883D-05  0.297074D-02 -0.297175D-02  0.297108D-02
     26 -0.617886D-02 -0.297204D-02  0.352669D-05  0.352669D-05 -0.297204D-02
     27 -0.546520D-02 -0.662336D-02  0.182981D-02  0.479593D-02  0.182973D-02
     28 -0.475383D-02 -0.479826D-02 -0.182167D-02 -0.479803D-02  0.662239D-02
               16            17            18            19            20 
     16  0.999605D-01
     17  0.144453D-01  0.505301D-01
     18 -0.390188D-01  0.893046D-02  0.505301D-01
     19 -0.390114D-01  0.893034D-02  0.893034D-02  0.505299D-01
     20  0.662234D-02 -0.475383D-02  0.546337D-02 -0.712131D-03  0.141841D-01
     21 -0.297209D-02  0.617479D-02  0.171203D-05 -0.617882D-02  0.357712D-02
     22  0.182973D-02  0.712749D-03 -0.546526D-02  0.474963D-02  0.392011D-02
     23  0.479616D-02 -0.546520D-02  0.474958D-02  0.712806D-03  0.392010D-02
     24 -0.479828D-02  0.546342D-02 -0.712073D-03 -0.475388D-02 -0.668693D-02
     25  0.354480D-05  0.137510D-05 -0.617904D-02  0.617457D-02 -0.634393D-02
     26  0.297103D-02 -0.617886D-02  0.617461D-02  0.154355D-05  0.357710D-02
     27 -0.662341D-02  0.474976D-02  0.712959D-03 -0.546514D-02 -0.702992D-02
     28 -0.182159D-02 -0.712284D-03 -0.475401D-02  0.546331D-02 -0.668693D-02
               21            22            23            24            25 
     21  0.134956D-01
     22  0.357586D-02  0.141816D-01
     23 -0.634138D-02 -0.668565D-02  0.141816D-01
     24  0.357714D-02 -0.702990D-02  0.392011D-02  0.141842D-01
     25 -0.634263D-02  0.357586D-02  0.357584D-02  0.357714D-02  0.134956D-01
     26 -0.634268D-02 -0.634140D-02  0.357583D-02 -0.634395D-02 -0.634268D-02
     27  0.357584D-02 -0.668565D-02 -0.668565D-02  0.392011D-02 -0.634138D-02
     28 -0.634393D-02  0.392011D-02 -0.702992D-02 -0.668693D-02  0.357712D-02
               26            27            28 
     26  0.134956D-01
     27  0.357583D-02  0.141816D-01
     28  0.357710D-02  0.392010D-02  0.141841D-01
 Leave Link  716 at Wed Mar 18 11:28:31 2015, MaxMem=    33554432 cpu:         0.0
 (Enter /usr/local/research/Gaussian09/g09-revD.01/g09/l103.exe)

 GradGradGradGradGradGradGradGradGradGradGradGradGradGradGradGradGradGrad
 Berny optimization.
 Red2BG is reusing G-inverse.
 Internal  Forces:  Max     0.000100251 RMS     0.000050190
 Search for a local minimum.
 Step number   1 out of a maximum of    2
 All quantities printed in internal units (Hartrees-Bohrs-Radians)
 Second derivative matrix not updated -- analytic derivatives used.
 ITU=  0
     Eigenvalues ---    0.00243   0.04364   0.04364   0.04510   0.04510
     Eigenvalues ---    0.11907   0.11926   0.12201   0.12201   0.17351
     Eigenvalues ---    0.17351   0.32266   0.34183   0.34183   0.34404
     Eigenvalues ---    0.34404   0.34652   0.34849
 Angle between quadratic step and forces=  10.02 degrees.
 Linear search not attempted -- first point.
 Iteration  1 RMS(Cart)=  0.00018125 RMS(Int)=  0.00000000
 Iteration  2 RMS(Cart)=  0.00000000 RMS(Int)=  0.00000000
 ITry= 1 IFail=0 DXMaxC= 3.77D-04 DCOld= 1.00D+10 DXMaxT= 3.00D-01 DXLimC= 3.00D+00 Rises=F
 ClnCor:  largest displacement from symmetrization is 2.60D-09 for atom     3.
 Variable       Old X    -DE/DX   Delta X   Delta X   Delta X     New X
                                 (Linear)    (Quad)   (Total)
    R1        2.08146  -0.00010   0.00000  -0.00029  -0.00029   2.08117
    R2        2.08146  -0.00010   0.00000  -0.00029  -0.00029   2.08117
    R3        2.08146  -0.00010   0.00000  -0.00029  -0.00029   2.08117
    R4        2.87098  -0.00010   0.00000  -0.00029  -0.00029   2.87069
    R5        2.08146  -0.00010   0.00000  -0.00029  -0.00029   2.08117
    R6        2.08146  -0.00010   0.00000  -0.00029  -0.00029   2.08117
    R7        2.08146  -0.00010   0.00000  -0.00029  -0.00029   2.08117
    A1        1.87187   0.00000   0.00000   0.00002   0.00002   1.87189
    A2        1.87187   0.00000   0.00000   0.00002   0.00002   1.87189
    A3        1.94796   0.00000   0.00000  -0.00002  -0.00002   1.94795
    A4        1.87187   0.00000   0.00000   0.00002   0.00002   1.87189
    A5        1.94796   0.00000   0.00000  -0.00002  -0.00002   1.94795
    A6        1.94796   0.00000   0.00000  -0.00002  -0.00002   1.94795
    A7        1.94796   0.00000   0.00000  -0.00002  -0.00002   1.94795
    A8        1.94796   0.00000   0.00000  -0.00002  -0.00002   1.94795
    A9        1.94796   0.00000   0.00000  -0.00002  -0.00002   1.94795
   A10        1.87187   0.00000   0.00000   0.00002   0.00002   1.87189
   A11        1.87187   0.00000   0.00000   0.00002   0.00002   1.87189
   A12        1.87187   0.00000   0.00000   0.00002   0.00002   1.87189
    D1        1.04749   0.00000   0.00000  -0.00004  -0.00004   1.04744
    D2       -3.14130   0.00000   0.00000  -0.00004  -0.00004  -3.14135
    D3       -1.04691   0.00000   0.00000  -0.00004  -0.00004  -1.04695
    D4       -1.04691   0.00000   0.00000  -0.00004  -0.00004  -1.04695
    D5        1.04749   0.00000   0.00000  -0.00004  -0.00004   1.04744
    D6       -3.14130   0.00000   0.00000  -0.00004  -0.00004  -3.14135
    D7       -3.14130   0.00000   0.00000  -0.00004  -0.00004  -3.14135
    D8       -1.04691   0.00000   0.00000  -0.00004  -0.00004  -1.04695
    D9        1.04749   0.00000   0.00000  -0.00004  -0.00004   1.04744
         Item               Value     Threshold  Converged?
 Maximum Force            0.000100     0.000450     YES
 RMS     Force            0.000050     0.000300     YES
 Maximum Displacement     0.000377     0.001800     YES
 RMS     Displacement     0.000181     0.001200     YES
 Predicted change in Energy=-1.013201D-07
 Optimization completed.
    -- Stationary point found.
                           ----------------------------
                           !   Optimized Parameters   !
                           ! (Angstroms and Degrees)  !
 --------------------------                            --------------------------
 ! Name  Definition              Value          Derivative Info.                !
 --------------------------------------------------------------------------------
 ! R1    R(1,2)                  1.1015         -DE/DX =   -0.0001              !
 ! R2    R(1,3)                  1.1015         -DE/DX =   -0.0001              !
 ! R3    R(1,4)                  1.1015         -DE/DX =   -0.0001              !
 ! R4    R(1,5)                  1.5193         -DE/DX =   -0.0001              !
 ! R5    R(5,6)                  1.1015         -DE/DX =   -0.0001              !
 ! R6    R(5,7)                  1.1015         -DE/DX =   -0.0001              !
 ! R7    R(5,8)                  1.1015         -DE/DX =   -0.0001              !
 ! A1    A(2,1,3)              107.2503         -DE/DX =    0.0                 !
 ! A2    A(2,1,4)              107.2503         -DE/DX =    0.0                 !
 ! A3    A(2,1,5)              111.6101         -DE/DX =    0.0                 !
 ! A4    A(3,1,4)              107.2503         -DE/DX =    0.0                 !
 ! A5    A(3,1,5)              111.6101         -DE/DX =    0.0                 !
 ! A6    A(4,1,5)              111.6101         -DE/DX =    0.0                 !
 ! A7    A(1,5,6)              111.6101         -DE/DX =    0.0                 !
 ! A8    A(1,5,7)              111.6101         -DE/DX =    0.0                 !
 ! A9    A(1,5,8)              111.6101         -DE/DX =    0.0                 !
 ! A10   A(6,5,7)              107.2503         -DE/DX =    0.0                 !
 ! A11   A(6,5,8)              107.2503         -DE/DX =    0.0                 !
 ! A12   A(7,5,8)              107.2503         -DE/DX =    0.0                 !
 ! D1    D(2,1,5,6)             60.0165         -DE/DX =    0.0                 !
 ! D2    D(2,1,5,7)           -179.9835         -DE/DX =    0.0                 !
 ! D3    D(2,1,5,8)            -59.9835         -DE/DX =    0.0                 !
 ! D4    D(3,1,5,6)            -59.9835         -DE/DX =    0.0                 !
 ! D5    D(3,1,5,7)             60.0165         -DE/DX =    0.0                 !
 ! D6    D(3,1,5,8)           -179.9835         -DE/DX =    0.0                 !
 ! D7    D(4,1,5,6)           -179.9835         -DE/DX =    0.0                 !
 ! D8    D(4,1,5,7)            -59.9835         -DE/DX =    0.0                 !
 ! D9    D(4,1,5,8)             60.0165         -DE/DX =    0.0                 !
 --------------------------------------------------------------------------------
 GradGradGradGradGradGradGradGradGradGradGradGradGradGradGradGradGradGrad

 Leave Link  103 at Wed Mar 18 11:28:31 2015, MaxMem=    33554432 cpu:         0.0
 (Enter /usr/local/research/Gaussian09/g09-revD.01/g09/l9999.exe)

 Test job not archived.
 1\1\GINC-HEISENBERG\Freq\RPBE1PBE\def2SVP\C2H6\LEIN\18-Mar-2015\0\\#P 
 Geom=AllCheck Guess=TCheck SCRF=Check Test GenChk RPBE1PBE/def2SVP Fre
 q\\-- Ethane --\\0,1\C,-0.6358123134,-0.0027214126,0.0084679117\H,-0.2
 885074406,-1.0473906122,-0.0270094383\H,-0.2880858337,0.4885984221,-0.
 9139767581\H,-1.7365046842,-0.0230481697,-0.0272557671\C,-0.1293843555
 ,0.7134569081,1.2489370205\H,0.9713080454,0.7340389698,1.2845132883\H,
 -0.4769299506,1.7580410313,1.2845617651\H,-0.4768701429,0.2219668453,2
 .1713817068\\Version=EM64L-G09RevD.01\State=1-A1\HF=-79.664069\RMSD=2.
 470e-10\RMSF=5.057e-05\ZeroPoint=0.0747016\Thermal=0.0781752\Dipole=0.
 ,0.,0.\DipoleDeriv=0.054135,0.0019999,0.0034799,0.0020021,0.0555417,0.
 0048795,0.0034519,0.0048852,0.0611795,0.0456332,0.0598821,-0.0103022,0
 .0444406,-0.1323417,-0.0459501,-0.0192099,-0.0207181,0.0297559,0.04558
 05,-0.0388747,0.046787,-0.0388828,0.0181515,0.0660846,0.0289314,0.0408
 731,-0.1206846,-0.1453493,-0.0230118,-0.0399445,-0.007546,0.0586473,-0
 .0250169,-0.0131772,-0.0250332,0.0297502,0.054135,0.0020137,0.0034719,
 0.0019884,0.0555417,0.0048852,0.0034598,0.0048795,0.0611795,-0.1453493
 ,-0.023051,-0.0399219,-0.007601,0.058649,-0.025029,-0.0131454,-0.02501
 91,0.0297484,0.045602,0.0599261,-0.0102833,0.0444688,-0.1323123,-0.045
 9674,-0.0192127,-0.0207528,0.0297577,0.0456117,-0.0388691,0.0467394,-0
 .0388663,0.0181203,0.0661182,0.0289084,0.0408894,-0.1206846\Polar=23.4
 651067,0.37254,23.7286842,0.6452644,0.9124998,24.7823684\PG=D03 [C3(C1
 .C1),X(H6)]\NImag=0\\0.56959235,-0.01220801,0.56095765,-0.02114509,-0.
 02990568,0.52642489,-0.07558909,0.08482749,0.00186290,0.07643662,0.084
 11212,-0.29179040,-0.00399182,-0.09011931,0.31272189,0.00145243,-0.002
 82908,-0.04600853,0.00013870,0.00755467,0.04908791,-0.07564424,-0.0408
 1861,0.07448215,0.00292081,0.00485275,-0.00995975,0.07649920,-0.040820
 25,-0.10444705,0.10524146,-0.01106582,-0.01175745,0.02399731,0.0452025
 4,0.10839312,0.07366007,0.10407683,-0.23329674,-0.00077343,-0.00155884
 ,0.00118963,-0.07807438,-0.11031109,0.25335410,-0.32086232,-0.00249360
 ,-0.00444493,-0.00817376,-0.00151453,0.00019967,-0.00818681,0.00093602
 ,-0.00121374,0.34311171,-0.00178348,-0.04650469,0.00043429,0.02996312,
 0.00186946,0.00007068,-0.01497914,-0.00065556,-0.00125352,0.00404419,0
 .04603354,-0.00321004,0.00043366,-0.04602159,-0.00000785,0.00021325,-0
 .00134270,0.02594490,-0.00140200,0.00119536,0.00714162,0.00264115,0.04
 910117,-0.09646273,-0.02342770,-0.04058212,0.00354543,0.00439014,0.009
 77859,0.00355082,0.00627718,0.00869820,-0.00812750,-0.01654453,-0.0286
 4716,0.56959235,-0.02343097,-0.11303301,-0.05739065,-0.01241056,-0.012
 42082,-0.02693201,0.00627513,0.00798279,0.01229396,0.00026561,-0.00074
 484,0.00025053,-0.01220800,0.56095765,-0.04058024,-0.05739199,-0.17930
 407,0.00008057,0.00051547,-0.00046045,-0.01071441,-0.01514377,-0.02086
 946,0.00045756,0.00024410,-0.00046465,-0.02114509,-0.02990567,0.526424
 89,-0.00812750,0.00026477,0.00045805,0.00058073,-0.00034747,0.00003769
 ,0.00058152,0.00020788,-0.00028334,0.00107455,-0.00109558,-0.00189681,
 -0.32086234,-0.00255449,-0.00440978,0.34311172,-0.01653745,-0.00074598
 ,0.00024645,-0.00032849,0.00034194,0.00068975,0.00071473,0.00048478,0.
 00034814,-0.00109503,-0.00082612,-0.00317558,-0.00184002,-0.04651736,0
 .00042648,0.00411044,0.04604584,-0.02865125,0.00024688,-0.00046352,0.0
 0063776,0.00026535,0.00108278,0.00004124,0.00077320,0.00094459,-0.0018
 9712,-0.00317622,-0.00449331,-0.00317740,0.00042682,-0.04600890,0.0071
 0337,0.00264826,0.04908886,0.00354840,-0.01241659,0.00007851,0.0000734
 1,-0.00144937,-0.00236221,0.00020470,0.00058362,0.00042154,0.00058133,
 -0.00032172,0.00063961,-0.07561472,0.08487498,0.00188197,-0.00818180,0
 .02996028,-0.00000243,0.07646731,0.00439203,-0.01242266,0.00051422,-0.
 00144883,0.00017508,-0.00284737,0.00007343,0.00086003,-0.00015016,-0.0
 0034939,0.00034426,0.00026681,0.08416395,-0.29175210,-0.00402236,-0.00
 151737,0.00187750,0.00021147,-0.09017471,0.31267889,0.00978067,-0.0269
 2694,-0.00046158,-0.00236171,-0.00284686,-0.00449337,0.00071617,0.0002
 8968,0.00094072,0.00003845,0.00069197,0.00108529,0.00146976,-0.0028575
 8,-0.04602121,0.00020315,0.00006616,-0.00134270,0.00011925,0.00758836,
 0.04910022,0.00354785,0.00627390,-0.01070816,0.00020560,0.00007514,0.0
 0071521,0.00007344,-0.00132086,-0.00243574,0.00058091,0.00071651,0.000
 03445,-0.07561860,-0.04081140,0.07443150,-0.00817877,-0.01498525,0.025
 94466,0.00292081,0.00486003,-0.00996589,0.07646850,0.00627632,0.007985
 76,-0.01514819,0.00058193,0.00086061,0.00029654,-0.00132102,-0.0008605
 6,-0.00344518,0.00020627,0.00048391,0.00077181,-0.04080936,-0.10447268
 ,0.10527728,0.00093158,-0.00066029,-0.00139558,-0.01105686,-0.01176075
 ,0.02399540,0.04519170,0.10842382,0.00869552,0.01229586,-0.02086945,0.
 00042254,-0.00015116,0.00094468,-0.00243646,-0.00344467,-0.00345776,-0
 .00028206,0.00034752,0.00094063,0.07360653,0.10411469,-0.23329674,-0.0
 0121302,-0.00124984,0.00119206,-0.00077667,-0.00156075,0.00119294,-0.0
 7801668,-0.11035189,0.25335411\\0.00000749,0.00001059,0.00001833,0.000
 02938,-0.00009566,-0.00000686,0.00002970,0.00004167,-0.00008628,-0.000
 09999,-0.00000385,-0.00000705,-0.00000749,-0.00001059,-0.00001833,0.00
 009999,0.00000417,0.00000687,-0.00002968,0.00009556,0.00000704,-0.0000
 2940,-0.00004188,0.00008628\\\@


 HEAVEN'S NET CASTS WIDE.
 THOUGH ITS MESHES ARE COARSE, NOTHING SLIPS THROUGH.

                                          -- LAO-TSU
 Job cpu time:       0 days  0 hours  0 minutes 25.7 seconds.
 File lengths (MBytes):  RWF=      5 Int=      0 D2E=      0 Chk=      1 Scr=      1
 Normal termination of Gaussian 09 at Wed Mar 18 11:28:31 2015.
