 Entering Gaussian System, Link 0=g09
 Initial command:
 /usr/local/research/Gaussian09/g09-revD.01/g09/l1.exe "/scratch/39138.heisenberg.scps.vuw.ac.nz/Gau-6936.inp" -scrdir="/scratch/39138.heisenberg.scps.vuw.ac.nz/"
 Entering Link 1 = /usr/local/research/Gaussian09/g09-revD.01/g09/l1.exe PID=      6938.
  
 Copyright (c) 1988,1990,1992,1993,1995,1998,2003,2009,2013,
            Gaussian, Inc.  All Rights Reserved.
  
 This is part of the Gaussian(R) 09 program.  It is based on
 the Gaussian(R) 03 system (copyright 2003, Gaussian, Inc.),
 the Gaussian(R) 98 system (copyright 1998, Gaussian, Inc.),
 the Gaussian(R) 94 system (copyright 1995, Gaussian, Inc.),
 the Gaussian 92(TM) system (copyright 1992, Gaussian, Inc.),
 the Gaussian 90(TM) system (copyright 1990, Gaussian, Inc.),
 the Gaussian 88(TM) system (copyright 1988, Gaussian, Inc.),
 the Gaussian 86(TM) system (copyright 1986, Carnegie Mellon
 University), and the Gaussian 82(TM) system (copyright 1983,
 Carnegie Mellon University). Gaussian is a federally registered
 trademark of Gaussian, Inc.
  
 This software contains proprietary and confidential information,
 including trade secrets, belonging to Gaussian, Inc.
  
 This software is provided under written license and may be
 used, copied, transmitted, or stored only in accord with that
 written license.
  
 The following legend is applicable only to US Government
 contracts under FAR:
  
                    RESTRICTED RIGHTS LEGEND
  
 Use, reproduction and disclosure by the US Government is
 subject to restrictions as set forth in subparagraphs (a)
 and (c) of the Commercial Computer Software - Restricted
 Rights clause in FAR 52.227-19.
  
 Gaussian, Inc.
 340 Quinnipiac St., Bldg. 40, Wallingford CT 06492
  
  
 ---------------------------------------------------------------
 Warning -- This program may not be used in any manner that
 competes with the business of Gaussian, Inc. or will provide
 assistance to any competitor of Gaussian, Inc.  The licensee
 of this program is prohibited from giving any competitor of
 Gaussian, Inc. access to this program.  By using this program,
 the user acknowledges that Gaussian, Inc. is engaged in the
 business of creating and licensing software in the field of
 computational chemistry and represents and warrants to the
 licensee that it is not a competitor of Gaussian, Inc. and that
 it will not use this program in any manner prohibited above.
 ---------------------------------------------------------------
  

 Cite this work as:
 Gaussian 09, Revision D.01,
 M. J. Frisch, G. W. Trucks, H. B. Schlegel, G. E. Scuseria, 
 M. A. Robb, J. R. Cheeseman, G. Scalmani, V. Barone, B. Mennucci, 
 G. A. Petersson, H. Nakatsuji, M. Caricato, X. Li, H. P. Hratchian, 
 A. F. Izmaylov, J. Bloino, G. Zheng, J. L. Sonnenberg, M. Hada, 
 M. Ehara, K. Toyota, R. Fukuda, J. Hasegawa, M. Ishida, T. Nakajima, 
 Y. Honda, O. Kitao, H. Nakai, T. Vreven, J. A. Montgomery, Jr., 
 J. E. Peralta, F. Ogliaro, M. Bearpark, J. J. Heyd, E. Brothers, 
 K. N. Kudin, V. N. Staroverov, T. Keith, R. Kobayashi, J. Normand, 
 K. Raghavachari, A. Rendell, J. C. Burant, S. S. Iyengar, J. Tomasi, 
 M. Cossi, N. Rega, J. M. Millam, M. Klene, J. E. Knox, J. B. Cross, 
 V. Bakken, C. Adamo, J. Jaramillo, R. Gomperts, R. E. Stratmann, 
 O. Yazyev, A. J. Austin, R. Cammi, C. Pomelli, J. W. Ochterski, 
 R. L. Martin, K. Morokuma, V. G. Zakrzewski, G. A. Voth, 
 P. Salvador, J. J. Dannenberg, S. Dapprich, A. D. Daniels, 
 O. Farkas, J. B. Foresman, J. V. Ortiz, J. Cioslowski, 
 and D. J. Fox, Gaussian, Inc., Wallingford CT, 2013.
 
 ******************************************
 Gaussian 09:  EM64L-G09RevD.01 24-Apr-2013
                12-Sep-2015 
 ******************************************
 %mem=2048mb
 %NProcShared=4
 Will use up to    4 processors via shared memory.
 %chk=Cl2_forDissoc.chk
 -------------------------------------------------------------
 #p opt freq scf=xqc pbe1pbe def2svp empiricaldispersion=gd3bj
 -------------------------------------------------------------
 1/14=-1,18=20,19=15,26=3,38=1/1,3;
 2/9=110,12=2,17=6,18=5,40=1/2;
 3/5=43,7=101,11=2,16=1,25=1,30=1,71=1,74=-13,124=41/1,2,3;
 4//1;
 5/5=2,8=3,13=1,38=5/2,8;
 6/7=2,8=2,9=2,10=2,28=1/1;
 7//1,2,3,16;
 1/14=-1,18=20,19=15,26=3/3(2);
 2/9=110/2;
 99//99;
 2/9=110/2;
 3/5=43,7=101,11=2,16=1,25=1,30=1,71=1,74=-13,124=41/1,2,3;
 4/5=5,16=3,69=1/1;
 5/5=2,8=3,13=1,38=5/2,8;
 7//1,2,3,16;
 1/14=-1,18=20,19=15,26=3/3(-5);
 2/9=110/2;
 6/7=2,8=2,9=2,10=2,19=2,28=1/1;
 99/9=1/99;
 Leave Link    1 at Sat Sep 12 23:28:38 2015, MaxMem=   268435456 cpu:         0.2
 (Enter /usr/local/research/Gaussian09/g09-revD.01/g09/l101.exe)
 ------------------------
 -- "Cl2 Optimisation" --
 ------------------------
 Symbolic Z-matrix:
 Charge =  0 Multiplicity = 1
 Cl                   -2.21284   0.67568   0. 
 Cl                   -4.19284   0.67568   0. 
 
 NAtoms=      2 NQM=        2 NQMF=       0 NMMI=      0 NMMIF=      0
                NMic=       0 NMicF=      0.
                    Isotopes and Nuclear Properties:
 (Nuclear quadrupole moments (NQMom) in fm**2, nuclear magnetic moments (NMagM)
  in nuclear magnetons)

  Atom         1           2
 IAtWgt=          35          35
 AtmWgt=  34.9688527  34.9688527
 NucSpn=           3           3
 AtZEff=   0.0000000   0.0000000
 NQMom=   -8.1650000  -8.1650000
 NMagM=    0.8218740   0.8218740
 AtZNuc=  17.0000000  17.0000000
 Leave Link  101 at Sat Sep 12 23:28:38 2015, MaxMem=   268435456 cpu:         0.3
 (Enter /usr/local/research/Gaussian09/g09-revD.01/g09/l103.exe)

 GradGradGradGradGradGradGradGradGradGradGradGradGradGradGradGradGradGrad
 Berny optimization.
 Initialization pass.
                           ----------------------------
                           !    Initial Parameters    !
                           ! (Angstroms and Degrees)  !
 --------------------------                            --------------------------
 ! Name  Definition              Value          Derivative Info.                !
 --------------------------------------------------------------------------------
 ! R1    R(1,2)                  1.98           estimate D2E/DX2                !
 --------------------------------------------------------------------------------
 Trust Radius=3.00D-01 FncErr=1.00D-07 GrdErr=1.00D-06
 Number of steps in this run=     20 maximum allowed number of steps=    100.
 GradGradGradGradGradGradGradGradGradGradGradGradGradGradGradGradGradGrad

 Leave Link  103 at Sat Sep 12 23:28:38 2015, MaxMem=   268435456 cpu:         0.0
 (Enter /usr/local/research/Gaussian09/g09-revD.01/g09/l202.exe)
                          Input orientation:                          
 ---------------------------------------------------------------------
 Center     Atomic      Atomic             Coordinates (Angstroms)
 Number     Number       Type             X           Y           Z
 ---------------------------------------------------------------------
      1         17           0       -2.212838    0.675676    0.000000
      2         17           0       -4.192838    0.675676    0.000000
 ---------------------------------------------------------------------
 Stoichiometry    Cl2
 Framework group  D*H[C*(Cl.Cl)]
 Deg. of freedom     1
 Full point group                 D*H     NOp   8
 Largest Abelian subgroup         D2H     NOp   8
 Largest concise Abelian subgroup C2      NOp   2
                         Standard orientation:                         
 ---------------------------------------------------------------------
 Center     Atomic      Atomic             Coordinates (Angstroms)
 Number     Number       Type             X           Y           Z
 ---------------------------------------------------------------------
      1         17           0        0.000000    0.000000    0.990000
      2         17           0        0.000000    0.000000   -0.990000
 ---------------------------------------------------------------------
 Rotational constants (GHZ):      0.0000000      7.3728505      7.3728505
 Leave Link  202 at Sat Sep 12 23:28:38 2015, MaxMem=   268435456 cpu:         0.0
 (Enter /usr/local/research/Gaussian09/g09-revD.01/g09/l301.exe)
 Standard basis: def2SVP (5D, 7F)
 Ernie: Thresh=  0.10000D-02 Tol=  0.10000D-05 Strict=F.
 There are    10 symmetry adapted cartesian basis functions of AG  symmetry.
 There are     1 symmetry adapted cartesian basis functions of B1G symmetry.
 There are     4 symmetry adapted cartesian basis functions of B2G symmetry.
 There are     4 symmetry adapted cartesian basis functions of B3G symmetry.
 There are     1 symmetry adapted cartesian basis functions of AU  symmetry.
 There are    10 symmetry adapted cartesian basis functions of B1U symmetry.
 There are     4 symmetry adapted cartesian basis functions of B2U symmetry.
 There are     4 symmetry adapted cartesian basis functions of B3U symmetry.
 There are     9 symmetry adapted basis functions of AG  symmetry.
 There are     1 symmetry adapted basis functions of B1G symmetry.
 There are     4 symmetry adapted basis functions of B2G symmetry.
 There are     4 symmetry adapted basis functions of B3G symmetry.
 There are     1 symmetry adapted basis functions of AU  symmetry.
 There are     9 symmetry adapted basis functions of B1U symmetry.
 There are     4 symmetry adapted basis functions of B2U symmetry.
 There are     4 symmetry adapted basis functions of B3U symmetry.
    36 basis functions,    74 primitive gaussians,    38 cartesian basis functions
    17 alpha electrons       17 beta electrons
       nuclear repulsion energy        77.2384915568 Hartrees.
 IExCor= 1009 DFT=T Ex+Corr=PBE1PBE ExCW=0 ScaHFX=  0.250000
 ScaDFX=  0.750000  0.750000  1.000000  1.000000 ScalE2=  1.000000  1.000000
 IRadAn=      0 IRanWt=     -1 IRanGd=            0 ICorTp=0 IEmpDi=141
 NAtoms=    2 NActive=    2 NUniq=    1 SFac= 4.00D+00 NAtFMM=   60 NAOKFM=F Big=F
 Integral buffers will be    131072 words long.
 Raffenetti 2 integral format.
 Two-electron integral symmetry is turned on.
 R6Disp:  Grimme-D3(BJ) Dispersion energy=       -0.0009259167 Hartrees.
 Nuclear repulsion after empirical dispersion term =       77.2375656401 Hartrees.
 Leave Link  301 at Sat Sep 12 23:28:38 2015, MaxMem=   268435456 cpu:         0.2
 (Enter /usr/local/research/Gaussian09/g09-revD.01/g09/l302.exe)
 NPDir=0 NMtPBC=     1 NCelOv=     1 NCel=       1 NClECP=     1 NCelD=      1
         NCelK=      1 NCelE2=     1 NClLst=     1 CellRange=     0.0.
 One-electron integrals computed using PRISM.
 One-electron integral symmetry used in STVInt
   8 Symmetry operations used in ECPInt.
 ECPInt:  NShTT=     136 NPrTT=     712 LenC2=     136 LenP2D=     595.
 LDataN:  DoStor=T MaxTD1= 4 Len=   56
 NBasis=    36 RedAO= T EigKep=  5.49D-02  NBF=     9     1     4     4     1     9     4     4
 NBsUse=    36 1.00D-06 EigRej= -1.00D+00 NBFU=     9     1     4     4     1     9     4     4
 Precomputing XC quadrature grid using
 IXCGrd= 4 IRadAn=           0 IRanWt=          -1 IRanGd=           0 AccXCQ= 0.00D+00.
 Generated NRdTot=       0 NPtTot=           0 NUsed=           0 NTot=          32
 NSgBfM=    37    37    37    37    37 MxSgAt=     2 MxSgA2=     2.
 Leave Link  302 at Sat Sep 12 23:28:38 2015, MaxMem=   268435456 cpu:         0.5
 (Enter /usr/local/research/Gaussian09/g09-revD.01/g09/l303.exe)
 DipDrv:  MaxL=1.
 Leave Link  303 at Sat Sep 12 23:28:38 2015, MaxMem=   268435456 cpu:         0.1
 (Enter /usr/local/research/Gaussian09/g09-revD.01/g09/l401.exe)
 ExpMin= 1.68D-01 ExpMax= 1.04D+04 ExpMxC= 1.57D+03 IAcc=1 IRadAn=         1 AccDes= 0.00D+00
 Harris functional with IExCor= 1009 and IRadAn=       1 diagonalized for initial guess.
 HarFok:  IExCor= 1009 AccDes= 0.00D+00 IRadAn=         1 IDoV= 1 UseB2=F ITyADJ=14
 ICtDFT=  3500011 ScaDFX=  1.000000  1.000000  1.000000  1.000000
 FoFCou: FMM=F IPFlag=           0 FMFlag=      100000 FMFlg1=           0
         NFxFlg=           0 DoJE=T BraDBF=F KetDBF=T FulRan=T
         wScrn=  0.000000 ICntrl=     500 IOpCl=  0 I1Cent=   200000004 NGrid=           0
         NMat0=    1 NMatS0=      1 NMatT0=    0 NMatD0=    1 NMtDS0=    0 NMtDT0=    0
 Petite list used in FoFCou.
 Harris En= -919.565484489067    
 JPrj=0 DoOrth=F DoCkMO=F.
 Initial guess orbital symmetries:
       Occupied  (SGU) (SGG) (SGU) (SGG) (SGG) (SGU) (PIG) (PIG)
                 (PIU) (PIU) (SGG) (SGU) (SGG) (PIU) (PIU) (PIG)
                 (PIG)
       Virtual   (SGU) (SGG) (SGU) (SGG) (PIU) (PIU) (DLTG) (DLTG)
                 (DLTU) (DLTU) (PIG) (PIG) (PIU) (PIU) (SGU) (PIG)
                 (PIG) (SGG) (SGU)
 The electronic state of the initial guess is 1-SGG.
 Leave Link  401 at Sat Sep 12 23:28:38 2015, MaxMem=   268435456 cpu:         0.5
 (Enter /usr/local/research/Gaussian09/g09-revD.01/g09/l502.exe)
 Closed shell SCF:
 Using DIIS extrapolation, IDIIS=  1040.
 Integral symmetry usage will be decided dynamically.
 Keep R1 ints in memory in symmetry-blocked form, NReq=1096799.
 IVT=       10962 IEndB=       10962 NGot=   268435456 MDV=   268390340
 LenX=   268390340 LenY=   268388455
 Requested convergence on RMS density matrix=1.00D-08 within  64 cycles.
 Requested convergence on MAX density matrix=1.00D-06.
 Requested convergence on             energy=1.00D-06.
 No special actions if energy rises.
 FoFCou: FMM=F IPFlag=           0 FMFlag=           0 FMFlg1=           0
         NFxFlg=           0 DoJE=F BraDBF=F KetDBF=F FulRan=T
         wScrn=  0.000000 ICntrl=     600 IOpCl=  0 I1Cent=           0 NGrid=           0
         NMat0=    1 NMatS0=    666 NMatT0=    0 NMatD0=    1 NMtDS0=    0 NMtDT0=    0
 Petite list used in FoFCou.
 Integral accuracy reduced to 1.0D-05 until final iterations.

 Cycle   1  Pass 0  IDiag  1:
 E= -919.744236605823    
 DIIS: error= 2.88D-02 at cycle   1 NSaved=   1.
 NSaved= 1 IEnMin= 1 EnMin= -919.744236605823     IErMin= 1 ErrMin= 2.88D-02
 ErrMax= 2.88D-02  0.00D+00 EMaxC= 1.00D-01 BMatC= 2.94D-02 BMatP= 2.94D-02
 IDIUse=3 WtCom= 7.12D-01 WtEn= 2.88D-01
 Coeff-Com:  0.100D+01
 Coeff-En:   0.100D+01
 Coeff:      0.100D+01
 Gap=     0.203 Goal=   None    Shift=    0.000
 GapD=    0.203 DampG=1.000 DampE=0.500 DampFc=0.5000 IDamp=-1.
 Damping current iteration by 5.00D-01
 RMSDP=6.86D-03 MaxDP=7.76D-02              OVMax= 4.27D-02

 Cycle   2  Pass 0  IDiag  1:
 E= -919.753859582386     Delta-E=       -0.009622976563 Rises=F Damp=T
 DIIS: error= 1.09D-02 at cycle   2 NSaved=   2.
 NSaved= 2 IEnMin= 2 EnMin= -919.753859582386     IErMin= 2 ErrMin= 1.09D-02
 ErrMax= 1.09D-02  0.00D+00 EMaxC= 1.00D-01 BMatC= 2.75D-03 BMatP= 2.94D-02
 IDIUse=3 WtCom= 8.91D-01 WtEn= 1.09D-01
 Coeff-Com: -0.311D+00 0.131D+01
 Coeff-En:   0.000D+00 0.100D+01
 Coeff:     -0.277D+00 0.128D+01
 Gap=     0.209 Goal=   None    Shift=    0.000
 RMSDP=1.12D-03 MaxDP=7.90D-03 DE=-9.62D-03 OVMax= 3.22D-02

 Cycle   3  Pass 0  IDiag  1:
 E= -919.761972055141     Delta-E=       -0.008112472756 Rises=F Damp=F
 DIIS: error= 2.54D-03 at cycle   3 NSaved=   3.
 NSaved= 3 IEnMin= 3 EnMin= -919.761972055141     IErMin= 3 ErrMin= 2.54D-03
 ErrMax= 2.54D-03  0.00D+00 EMaxC= 1.00D-01 BMatC= 2.42D-04 BMatP= 2.75D-03
 IDIUse=3 WtCom= 9.75D-01 WtEn= 2.54D-02
 Coeff-Com: -0.135D+00 0.374D+00 0.761D+00
 Coeff-En:   0.000D+00 0.000D+00 0.100D+01
 Coeff:     -0.132D+00 0.364D+00 0.768D+00
 Gap=     0.210 Goal=   None    Shift=    0.000
 RMSDP=3.67D-04 MaxDP=2.05D-03 DE=-8.11D-03 OVMax= 5.18D-03

 Cycle   4  Pass 0  IDiag  1:
 E= -919.762217198261     Delta-E=       -0.000245143120 Rises=F Damp=F
 DIIS: error= 2.55D-04 at cycle   4 NSaved=   4.
 NSaved= 4 IEnMin= 4 EnMin= -919.762217198261     IErMin= 4 ErrMin= 2.55D-04
 ErrMax= 2.55D-04  0.00D+00 EMaxC= 1.00D-01 BMatC= 4.34D-06 BMatP= 2.42D-04
 IDIUse=3 WtCom= 9.97D-01 WtEn= 2.55D-03
 Coeff-Com: -0.291D-01 0.645D-01 0.207D+00 0.758D+00
 Coeff-En:   0.000D+00 0.000D+00 0.000D+00 0.100D+01
 Coeff:     -0.290D-01 0.644D-01 0.206D+00 0.758D+00
 Gap=     0.210 Goal=   None    Shift=    0.000
 RMSDP=7.81D-05 MaxDP=7.75D-04 DE=-2.45D-04 OVMax= 5.24D-04

 Cycle   5  Pass 0  IDiag  1:
 E= -919.762221410663     Delta-E=       -0.000004212402 Rises=F Damp=F
 DIIS: error= 1.25D-05 at cycle   5 NSaved=   5.
 NSaved= 5 IEnMin= 5 EnMin= -919.762221410663     IErMin= 5 ErrMin= 1.25D-05
 ErrMax= 1.25D-05  0.00D+00 EMaxC= 1.00D-01 BMatC= 6.81D-09 BMatP= 4.34D-06
 IDIUse=1 WtCom= 1.00D+00 WtEn= 0.00D+00
 Coeff-Com:  0.184D-02-0.442D-02-0.136D-01-0.892D-02 0.103D+01
 Coeff:      0.184D-02-0.442D-02-0.136D-01-0.892D-02 0.103D+01
 Gap=     0.210 Goal=   None    Shift=    0.000
 RMSDP=2.65D-06 MaxDP=3.26D-05 DE=-4.21D-06 OVMax= 1.23D-05

 Initial convergence to 1.0D-05 achieved.  Increase integral accuracy.
 Cycle   6  Pass 1  IDiag  1:
 E= -919.762265185465     Delta-E=       -0.000043774802 Rises=F Damp=F
 DIIS: error= 5.59D-05 at cycle   1 NSaved=   1.
 NSaved= 1 IEnMin= 1 EnMin= -919.762265185465     IErMin= 1 ErrMin= 5.59D-05
 ErrMax= 5.59D-05  0.00D+00 EMaxC= 1.00D-01 BMatC= 4.59D-08 BMatP= 4.59D-08
 IDIUse=1 WtCom= 1.00D+00 WtEn= 0.00D+00
 Coeff-Com:  0.100D+01
 Coeff:      0.100D+01
 Gap=     0.210 Goal=   None    Shift=    0.000
 RMSDP=2.65D-06 MaxDP=3.26D-05 DE=-4.38D-05 OVMax= 1.23D-05

 Cycle   7  Pass 1  IDiag  1:
 E= -919.762265200406     Delta-E=       -0.000000014940 Rises=F Damp=F
 DIIS: error= 4.64D-06 at cycle   2 NSaved=   2.
 NSaved= 2 IEnMin= 2 EnMin= -919.762265200406     IErMin= 2 ErrMin= 4.64D-06
 ErrMax= 4.64D-06  0.00D+00 EMaxC= 1.00D-01 BMatC= 9.99D-10 BMatP= 4.59D-08
 IDIUse=1 WtCom= 1.00D+00 WtEn= 0.00D+00
 Coeff-Com:  0.491D-01 0.951D+00
 Coeff:      0.491D-01 0.951D+00
 Gap=     0.210 Goal=   None    Shift=    0.000
 RMSDP=1.68D-06 MaxDP=2.15D-05 DE=-1.49D-08 OVMax= 1.27D-05

 Cycle   8  Pass 1  IDiag  1:
 E= -919.762265200930     Delta-E=       -0.000000000525 Rises=F Damp=F
 DIIS: error= 2.21D-06 at cycle   3 NSaved=   3.
 NSaved= 3 IEnMin= 3 EnMin= -919.762265200930     IErMin= 3 ErrMin= 2.21D-06
 ErrMax= 2.21D-06  0.00D+00 EMaxC= 1.00D-01 BMatC= 3.46D-10 BMatP= 9.99D-10
 IDIUse=1 WtCom= 1.00D+00 WtEn= 0.00D+00
 Coeff-Com: -0.490D-02 0.363D+00 0.642D+00
 Coeff:     -0.490D-02 0.363D+00 0.642D+00
 Gap=     0.210 Goal=   None    Shift=    0.000
 RMSDP=5.54D-07 MaxDP=5.99D-06 DE=-5.25D-10 OVMax= 5.51D-06

 Cycle   9  Pass 1  IDiag  1:
 E= -919.762265201259     Delta-E=       -0.000000000329 Rises=F Damp=F
 DIIS: error= 3.82D-07 at cycle   4 NSaved=   4.
 NSaved= 4 IEnMin= 4 EnMin= -919.762265201259     IErMin= 4 ErrMin= 3.82D-07
 ErrMax= 3.82D-07  0.00D+00 EMaxC= 1.00D-01 BMatC= 5.44D-12 BMatP= 3.46D-10
 IDIUse=1 WtCom= 1.00D+00 WtEn= 0.00D+00
 Coeff-Com: -0.279D-02 0.106D+00 0.227D+00 0.671D+00
 Coeff:     -0.279D-02 0.106D+00 0.227D+00 0.671D+00
 Gap=     0.210 Goal=   None    Shift=    0.000
 RMSDP=6.10D-08 MaxDP=3.26D-07 DE=-3.29D-10 OVMax= 8.00D-07

 Cycle  10  Pass 1  IDiag  1:
 E= -919.762265201265     Delta-E=       -0.000000000006 Rises=F Damp=F
 DIIS: error= 1.70D-08 at cycle   5 NSaved=   5.
 NSaved= 5 IEnMin= 5 EnMin= -919.762265201265     IErMin= 5 ErrMin= 1.70D-08
 ErrMax= 1.70D-08  0.00D+00 EMaxC= 1.00D-01 BMatC= 1.86D-14 BMatP= 5.44D-12
 IDIUse=1 WtCom= 1.00D+00 WtEn= 0.00D+00
 Coeff-Com: -0.911D-04 0.648D-04 0.569D-02 0.654D-01 0.929D+00
 Coeff:     -0.911D-04 0.648D-04 0.569D-02 0.654D-01 0.929D+00
 Gap=     0.210 Goal=   None    Shift=    0.000
 RMSDP=6.47D-09 MaxDP=8.79D-08 DE=-6.14D-12 OVMax= 2.27D-09

 SCF Done:  E(RPBE1PBE) =  -919.762265201     A.U. after   10 cycles
            NFock= 10  Conv=0.65D-08     -V/T= 2.0016
 KE= 9.183103994591D+02 PE=-2.341919507775D+03 EE= 4.266092774749D+02
 Leave Link  502 at Sat Sep 12 23:28:39 2015, MaxMem=   268435456 cpu:         0.7
 (Enter /usr/local/research/Gaussian09/g09-revD.01/g09/l508.exe)
 QCSCF skips out because SCF is already converged.
 Leave Link  508 at Sat Sep 12 23:28:39 2015, MaxMem=   268435456 cpu:         0.0
 (Enter /usr/local/research/Gaussian09/g09-revD.01/g09/l601.exe)
 Copying SCF densities to generalized density rwf, IOpCl= 0 IROHF=0.

 **********************************************************************

            Population analysis using the SCF density.

 **********************************************************************

 Orbital symmetries:
       Occupied  (SGU) (SGG) (SGU) (SGG) (SGG) (SGU) (PIG) (PIG)
                 (PIU) (PIU) (SGG) (SGU) (SGG) (PIU) (PIU) (PIG)
                 (PIG)
       Virtual   (SGU) (SGG) (SGU) (SGG) (PIU) (PIU) (DLTG) (DLTG)
                 (DLTU) (DLTU) (PIG) (PIG) (SGU) (PIU) (PIU) (PIG)
                 (PIG) (SGG) (SGU)
 The electronic state is 1-SGG.
 Alpha  occ. eigenvalues -- -101.72954-101.72949  -9.58063  -9.58060  -7.32566
 Alpha  occ. eigenvalues --   -7.32555  -7.30995  -7.30995  -7.30994  -7.30994
 Alpha  occ. eigenvalues --   -0.96366  -0.78111  -0.48516  -0.42113  -0.42113
 Alpha  occ. eigenvalues --   -0.31221  -0.31221
 Alpha virt. eigenvalues --   -0.10237   0.41031   0.53213   0.56236   0.58617
 Alpha virt. eigenvalues --    0.58617   0.73055   0.73055   0.77938   0.77938
 Alpha virt. eigenvalues --    0.79976   0.79976   0.82238   0.84442   0.84442
 Alpha virt. eigenvalues --    1.03413   1.03413   1.05765   1.43383
          Condensed to atoms (all electrons):
               1          2
     1  Cl  16.884875   0.115125
     2  Cl   0.115125  16.884875
 Mulliken charges:
               1
     1  Cl   0.000000
     2  Cl   0.000000
 Sum of Mulliken charges =   0.00000
 Mulliken charges with hydrogens summed into heavy atoms:
               1
     1  Cl   0.000000
     2  Cl   0.000000
 Electronic spatial extent (au):  <R**2>=            172.2886
 Charge=              0.0000 electrons
 Dipole moment (field-independent basis, Debye):
    X=              0.0000    Y=              0.0000    Z=              0.0000  Tot=              0.0000
 Quadrupole moment (field-independent basis, Debye-Ang):
   XX=            -24.8650   YY=            -24.8650   ZZ=            -21.9449
   XY=              0.0000   XZ=              0.0000   YZ=              0.0000
 Traceless Quadrupole moment (field-independent basis, Debye-Ang):
   XX=             -0.9734   YY=             -0.9734   ZZ=              1.9467
   XY=              0.0000   XZ=              0.0000   YZ=              0.0000
 Octapole moment (field-independent basis, Debye-Ang**2):
  XXX=              0.0000  YYY=              0.0000  ZZZ=              0.0000  XYY=              0.0000
  XXY=              0.0000  XXZ=              0.0000  XZZ=              0.0000  YZZ=              0.0000
  YYZ=              0.0000  XYZ=              0.0000
 Hexadecapole moment (field-independent basis, Debye-Ang**3):
 XXXX=            -24.8381 YYYY=            -24.8381 ZZZZ=           -144.5362 XXXY=              0.0000
 XXXZ=              0.0000 YYYX=              0.0000 YYYZ=              0.0000 ZZZX=              0.0000
 ZZZY=              0.0000 XXYY=             -8.2794 XXZZ=            -32.4246 YYZZ=            -32.4246
 XXYZ=              0.0000 YYXZ=              0.0000 ZZXY=              0.0000
 N-N= 7.723756564009D+01 E-N=-2.341919505807D+03  KE= 9.183103994591D+02
 Symmetry AG   KE= 3.693572906298D+02
 Symmetry B1G  KE= 4.208648211064D-35
 Symmetry B2G  KE= 4.631369143067D+01
 Symmetry B3G  KE= 4.631369143067D+01
 Symmetry AU   KE= 1.096661041323D-34
 Symmetry B1U  KE= 3.654229553732D+02
 Symmetry B2U  KE= 4.545138529738D+01
 Symmetry B3U  KE= 4.545138529738D+01
 No NMR shielding tensors so no spin-rotation constants.
 Leave Link  601 at Sat Sep 12 23:28:39 2015, MaxMem=   268435456 cpu:         0.5
 (Enter /usr/local/research/Gaussian09/g09-revD.01/g09/l701.exe)
 Compute integral first derivatives.
 ... and contract with generalized density number  0.
 R6Disp: Adding Grimme-D3(BJ) dispersion energy 1st derivatives to the gradient.
   8 Symmetry operations used in ECPInt.
 ECPInt:  NShTT=     136 NPrTT=     712 LenC2=     136 LenP2D=     595.
 LDataN:  DoStor=T MaxTD1= 5 Len=  102
 Leave Link  701 at Sat Sep 12 23:28:39 2015, MaxMem=   268435456 cpu:         0.6
 (Enter /usr/local/research/Gaussian09/g09-revD.01/g09/l702.exe)
 L702 exits ... SP integral derivatives will be done elsewhere.
 Leave Link  702 at Sat Sep 12 23:28:39 2015, MaxMem=   268435456 cpu:         0.0
 (Enter /usr/local/research/Gaussian09/g09-revD.01/g09/l703.exe)
 Compute integral first derivatives, UseDBF=F ICtDFT=           0.
 Integral derivatives from FoFJK, PRISM(SPDF).
 Calling FoFJK, ICntrl=      2127 FMM=F ISym2X=1 I1Cent= 0 IOpClX= 0 NMat=1 NMatS=1 NMatT=0.
 FoFJK:  IHMeth= 1 ICntrl=    2127 DoSepK=F KAlg= 0 I1Cent=   0 FoldK=F
 IRaf=         0 NMat=   1 IRICut=       1 DoRegI=T DoRafI=F ISym2E= 1.
 FoFCou: FMM=F IPFlag=           0 FMFlag=      100000 FMFlg1=         800
         NFxFlg=           0 DoJE=F BraDBF=F KetDBF=F FulRan=T
         wScrn=  0.000000 ICntrl=    2127 IOpCl=  0 I1Cent=           0 NGrid=           0
         NMat0=    1 NMatS0=      1 NMatT0=    0 NMatD0=    1 NMtDS0=    0 NMtDT0=    0
 Petite list used in FoFCou.
 Leave Link  703 at Sat Sep 12 23:28:40 2015, MaxMem=   268435456 cpu:         0.6
 (Enter /usr/local/research/Gaussian09/g09-revD.01/g09/l716.exe)
 Dipole        = 0.00000000D+00-3.08148791D-33 0.00000000D+00
 ***** Axes restored to original set *****
 -------------------------------------------------------------------
 Center     Atomic                   Forces (Hartrees/Bohr)
 Number     Number              X              Y              Z
 -------------------------------------------------------------------
      1       17           0.018001041    0.000000000    0.000000000
      2       17          -0.018001041    0.000000000    0.000000000
 -------------------------------------------------------------------
 Cartesian Forces:  Max     0.018001041 RMS     0.010392906
 Leave Link  716 at Sat Sep 12 23:28:40 2015, MaxMem=   268435456 cpu:         0.1
 (Enter /usr/local/research/Gaussian09/g09-revD.01/g09/l103.exe)

 GradGradGradGradGradGradGradGradGradGradGradGradGradGradGradGradGradGrad
 Berny optimization.
 FormGI is forming the generalized inverse of G from B-inverse, IUseBI=4.
 Internal  Forces:  Max     0.018001041 RMS     0.018001041
 Search for a local minimum.
 Step number   1 out of a maximum of   20
 All quantities printed in internal units (Hartrees-Bohrs-Radians)
 RMS Force = .18001D-01 SwitMx=.10000D-02 MixMth= 1
 Mixed Optimization -- RFO/linear search
 Second derivative matrix not updated -- first step.
 The second derivative matrix:
                          R1
           R1           0.36987
 ITU=  0
     Eigenvalues ---    0.36987
 RFO step:  Lambda=-8.74019331D-04 EMin= 3.69870028D-01
 Linear search not attempted -- first point.
 Iteration  1 RMS(Cart)=  0.03433274 RMS(Int)=  0.00000000
 Iteration  2 RMS(Cart)=  0.00000000 RMS(Int)=  0.00000000
 ITry= 1 IFail=0 DXMaxC= 2.43D-02 DCOld= 1.00D+10 DXMaxT= 3.00D-01 DXLimC= 3.00D+00 Rises=F
 ClnCor:  largest displacement from symmetrization is 1.49D-18 for atom     1.
 Variable       Old X    -DE/DX   Delta X   Delta X   Delta X     New X
                                 (Linear)    (Quad)   (Total)
    R1        3.74166   0.01800   0.00000   0.04855   0.04855   3.79021
         Item               Value     Threshold  Converged?
 Maximum Force            0.018001     0.000450     NO 
 RMS     Force            0.018001     0.000300     NO 
 Maximum Displacement     0.024277     0.001800     NO 
 RMS     Displacement     0.034333     0.001200     NO 
 Predicted change in Energy=-4.380399D-04
 Lowest energy point so far.  Saving SCF results.
 GradGradGradGradGradGradGradGradGradGradGradGradGradGradGradGradGradGrad

 Leave Link  103 at Sat Sep 12 23:28:40 2015, MaxMem=   268435456 cpu:         0.0
 (Enter /usr/local/research/Gaussian09/g09-revD.01/g09/l202.exe)
                          Input orientation:                          
 ---------------------------------------------------------------------
 Center     Atomic      Atomic             Coordinates (Angstroms)
 Number     Number       Type             X           Y           Z
 ---------------------------------------------------------------------
      1         17           0       -2.199991    0.675676    0.000000
      2         17           0       -4.205684    0.675676    0.000000
 ---------------------------------------------------------------------
 Stoichiometry    Cl2
 Framework group  D*H[C*(Cl.Cl)]
 Deg. of freedom     1
 Full point group                 D*H     NOp   8
 RotChk:  IX=0 Diff= 8.66D-17
 Largest Abelian subgroup         D2H     NOp   8
 Largest concise Abelian subgroup C2      NOp   2
                         Standard orientation:                         
 ---------------------------------------------------------------------
 Center     Atomic      Atomic             Coordinates (Angstroms)
 Number     Number       Type             X           Y           Z
 ---------------------------------------------------------------------
      1         17           0        0.000000    0.000000    1.002847
      2         17           0        0.000000    0.000000   -1.002847
 ---------------------------------------------------------------------
 Rotational constants (GHZ):      0.0000000      7.1851633      7.1851633
 Leave Link  202 at Sat Sep 12 23:28:40 2015, MaxMem=   268435456 cpu:         0.0
 (Enter /usr/local/research/Gaussian09/g09-revD.01/g09/l301.exe)
 Standard basis: def2SVP (5D, 7F)
 Ernie: Thresh=  0.10000D-02 Tol=  0.10000D-05 Strict=F.
 There are    10 symmetry adapted cartesian basis functions of AG  symmetry.
 There are     1 symmetry adapted cartesian basis functions of B1G symmetry.
 There are     4 symmetry adapted cartesian basis functions of B2G symmetry.
 There are     4 symmetry adapted cartesian basis functions of B3G symmetry.
 There are     1 symmetry adapted cartesian basis functions of AU  symmetry.
 There are    10 symmetry adapted cartesian basis functions of B1U symmetry.
 There are     4 symmetry adapted cartesian basis functions of B2U symmetry.
 There are     4 symmetry adapted cartesian basis functions of B3U symmetry.
 There are     9 symmetry adapted basis functions of AG  symmetry.
 There are     1 symmetry adapted basis functions of B1G symmetry.
 There are     4 symmetry adapted basis functions of B2G symmetry.
 There are     4 symmetry adapted basis functions of B3G symmetry.
 There are     1 symmetry adapted basis functions of AU  symmetry.
 There are     9 symmetry adapted basis functions of B1U symmetry.
 There are     4 symmetry adapted basis functions of B2U symmetry.
 There are     4 symmetry adapted basis functions of B3U symmetry.
    36 basis functions,    74 primitive gaussians,    38 cartesian basis functions
    17 alpha electrons       17 beta electrons
       nuclear repulsion energy        76.2490417754 Hartrees.
 IExCor= 1009 DFT=T Ex+Corr=PBE1PBE ExCW=0 ScaHFX=  0.250000
 ScaDFX=  0.750000  0.750000  1.000000  1.000000 ScalE2=  1.000000  1.000000
 IRadAn=      0 IRanWt=     -1 IRanGd=            0 ICorTp=0 IEmpDi=141
 NAtoms=    2 NActive=    2 NUniq=    1 SFac= 4.00D+00 NAtFMM=   60 NAOKFM=F Big=F
 Integral buffers will be    131072 words long.
 Raffenetti 2 integral format.
 Two-electron integral symmetry is turned on.
 R6Disp:  Grimme-D3(BJ) Dispersion energy=       -0.0009251694 Hartrees.
 Nuclear repulsion after empirical dispersion term =       76.2481166060 Hartrees.
 Leave Link  301 at Sat Sep 12 23:28:40 2015, MaxMem=   268435456 cpu:         0.2
 (Enter /usr/local/research/Gaussian09/g09-revD.01/g09/l302.exe)
 NPDir=0 NMtPBC=     1 NCelOv=     1 NCel=       1 NClECP=     1 NCelD=      1
         NCelK=      1 NCelE2=     1 NClLst=     1 CellRange=     0.0.
 One-electron integrals computed using PRISM.
 One-electron integral symmetry used in STVInt
   8 Symmetry operations used in ECPInt.
 ECPInt:  NShTT=     136 NPrTT=     712 LenC2=     136 LenP2D=     595.
 LDataN:  DoStor=T MaxTD1= 4 Len=   56
 NBasis=    36 RedAO= T EigKep=  5.73D-02  NBF=     9     1     4     4     1     9     4     4
 NBsUse=    36 1.00D-06 EigRej= -1.00D+00 NBFU=     9     1     4     4     1     9     4     4
 Precomputing XC quadrature grid using
 IXCGrd= 4 IRadAn=           0 IRanWt=          -1 IRanGd=           0 AccXCQ= 0.00D+00.
 Generated NRdTot=       0 NPtTot=           0 NUsed=           0 NTot=          32
 NSgBfM=    37    37    37    37    37 MxSgAt=     2 MxSgA2=     2.
 Leave Link  302 at Sat Sep 12 23:28:40 2015, MaxMem=   268435456 cpu:         0.6
 (Enter /usr/local/research/Gaussian09/g09-revD.01/g09/l303.exe)
 DipDrv:  MaxL=1.
 Leave Link  303 at Sat Sep 12 23:28:40 2015, MaxMem=   268435456 cpu:         0.1
 (Enter /usr/local/research/Gaussian09/g09-revD.01/g09/l401.exe)
 Initial guess from the checkpoint file:  "Cl2_forDissoc.chk"
 B after Tr=     0.000000    0.000000    0.000000
         Rot=    1.000000    0.000000    0.000000    0.000000 Ang=   0.00 deg.
 Guess basis will be translated and rotated to current coordinates.
 JPrj=2 DoOrth=T DoCkMO=T.
 Initial guess orbital symmetries:
       Occupied  (SGU) (SGG) (SGU) (SGG) (SGG) (SGU) (PIG) (PIG)
                 (PIU) (PIU) (SGG) (SGU) (SGG) (PIU) (PIU) (PIG)
                 (PIG)
       Virtual   (SGG) (SGG) (DLTG) (SGG) (DLTG) (PIG) (PIG) (PIG)
                 (PIG) (DLTU) (SGU) (SGU) (DLTU) (SGU) (SGU) (PIU)
                 (PIU) (PIU) (PIU)
 The electronic state of the initial guess is 1-SGG.
 Generating alternative initial guess.
 ExpMin= 1.68D-01 ExpMax= 1.04D+04 ExpMxC= 1.57D+03 IAcc=1 IRadAn=         1 AccDes= 0.00D+00
 Harris functional with IExCor= 1009 and IRadAn=       1 diagonalized for initial guess.
 HarFok:  IExCor= 1009 AccDes= 0.00D+00 IRadAn=         1 IDoV= 1 UseB2=F ITyADJ=14
 ICtDFT=  3500011 ScaDFX=  1.000000  1.000000  1.000000  1.000000
 FoFCou: FMM=F IPFlag=           0 FMFlag=      100000 FMFlg1=           0
         NFxFlg=           0 DoJE=T BraDBF=F KetDBF=T FulRan=T
         wScrn=  0.000000 ICntrl=     500 IOpCl=  0 I1Cent=   200000004 NGrid=           0
         NMat0=    1 NMatS0=      1 NMatT0=    0 NMatD0=    1 NMtDS0=    0 NMtDT0=    0
 Petite list used in FoFCou.
 Harris En= -919.566943983337    
 Leave Link  401 at Sat Sep 12 23:28:41 2015, MaxMem=   268435456 cpu:         0.6
 (Enter /usr/local/research/Gaussian09/g09-revD.01/g09/l502.exe)
 Closed shell SCF:
 Using DIIS extrapolation, IDIIS=  1040.
 Integral symmetry usage will be decided dynamically.
 Keep R1 ints in memory in symmetry-blocked form, NReq=1096799.
 IVT=       10962 IEndB=       10962 NGot=   268435456 MDV=   268390340
 LenX=   268390340 LenY=   268388455
 Requested convergence on RMS density matrix=1.00D-08 within  64 cycles.
 Requested convergence on MAX density matrix=1.00D-06.
 Requested convergence on             energy=1.00D-06.
 No special actions if energy rises.
 FoFCou: FMM=F IPFlag=           0 FMFlag=           0 FMFlg1=           0
         NFxFlg=           0 DoJE=F BraDBF=F KetDBF=F FulRan=T
         wScrn=  0.000000 ICntrl=     600 IOpCl=  0 I1Cent=           0 NGrid=           0
         NMat0=    1 NMatS0=    666 NMatT0=    0 NMatD0=    1 NMtDS0=    0 NMtDT0=    0
 Petite list used in FoFCou.
 Integral accuracy reduced to 1.0D-05 until final iterations.

 Cycle   1  Pass 0  IDiag  1:
 E= -919.762628074199    
 DIIS: error= 2.08D-03 at cycle   1 NSaved=   1.
 NSaved= 1 IEnMin= 1 EnMin= -919.762628074199     IErMin= 1 ErrMin= 2.08D-03
 ErrMax= 2.08D-03  0.00D+00 EMaxC= 1.00D-01 BMatC= 1.22D-04 BMatP= 1.22D-04
 IDIUse=3 WtCom= 9.79D-01 WtEn= 2.08D-02
 Coeff-Com:  0.100D+01
 Coeff-En:   0.100D+01
 Coeff:      0.100D+01
 Gap=     0.260 Goal=   None    Shift=    0.000
 GapD=    0.260 DampG=1.000 DampE=1.000 DampFc=1.0000 IDamp=-1.
 RMSDP=4.42D-04 MaxDP=2.83D-03              OVMax= 1.97D-03

 Cycle   2  Pass 0  IDiag  1:
 E= -919.762782488204     Delta-E=       -0.000154414005 Rises=F Damp=F
 DIIS: error= 4.82D-04 at cycle   2 NSaved=   2.
 NSaved= 2 IEnMin= 2 EnMin= -919.762782488204     IErMin= 2 ErrMin= 4.82D-04
 ErrMax= 4.82D-04  0.00D+00 EMaxC= 1.00D-01 BMatC= 1.22D-05 BMatP= 1.22D-04
 IDIUse=3 WtCom= 9.95D-01 WtEn= 4.82D-03
 Coeff-Com:  0.151D+00 0.849D+00
 Coeff-En:   0.000D+00 0.100D+01
 Coeff:      0.150D+00 0.850D+00
 Gap=     0.203 Goal=   None    Shift=    0.000
 RMSDP=1.46D-04 MaxDP=1.26D-03 DE=-1.54D-04 OVMax= 2.13D-03

 Cycle   3  Pass 0  IDiag  1:
 E= -919.762791927551     Delta-E=       -0.000009439347 Rises=F Damp=F
 DIIS: error= 3.21D-04 at cycle   3 NSaved=   3.
 NSaved= 3 IEnMin= 3 EnMin= -919.762791927551     IErMin= 3 ErrMin= 3.21D-04
 ErrMax= 3.21D-04  0.00D+00 EMaxC= 1.00D-01 BMatC= 3.93D-06 BMatP= 1.22D-05
 IDIUse=3 WtCom= 9.97D-01 WtEn= 3.21D-03
 Coeff-Com: -0.249D-01 0.350D+00 0.675D+00
 Coeff-En:   0.000D+00 0.159D+00 0.841D+00
 Coeff:     -0.248D-01 0.349D+00 0.676D+00
 Gap=     0.203 Goal=   None    Shift=    0.000
 RMSDP=4.35D-05 MaxDP=2.67D-04 DE=-9.44D-06 OVMax= 5.39D-04

 Cycle   4  Pass 0  IDiag  1:
 E= -919.762795934690     Delta-E=       -0.000004007140 Rises=F Damp=F
 DIIS: error= 5.39D-06 at cycle   4 NSaved=   4.
 NSaved= 4 IEnMin= 4 EnMin= -919.762795934690     IErMin= 4 ErrMin= 5.39D-06
 ErrMax= 5.39D-06  0.00D+00 EMaxC= 1.00D-01 BMatC= 1.13D-09 BMatP= 3.93D-06
 IDIUse=1 WtCom= 1.00D+00 WtEn= 0.00D+00
 Coeff-Com: -0.933D-03-0.368D-02-0.237D-02 0.101D+01
 Coeff:     -0.933D-03-0.368D-02-0.237D-02 0.101D+01
 Gap=     0.203 Goal=   None    Shift=    0.000
 RMSDP=1.93D-06 MaxDP=1.15D-05 DE=-4.01D-06 OVMax= 2.29D-05

 Initial convergence to 1.0D-05 achieved.  Increase integral accuracy.
 Cycle   5  Pass 1  IDiag  1:
 E= -919.762878661226     Delta-E=       -0.000082726535 Rises=F Damp=F
 DIIS: error= 5.99D-05 at cycle   1 NSaved=   1.
 NSaved= 1 IEnMin= 1 EnMin= -919.762878661226     IErMin= 1 ErrMin= 5.99D-05
 ErrMax= 5.99D-05  0.00D+00 EMaxC= 1.00D-01 BMatC= 4.96D-08 BMatP= 4.96D-08
 IDIUse=1 WtCom= 1.00D+00 WtEn= 0.00D+00
 Coeff-Com:  0.100D+01
 Coeff:      0.100D+01
 Gap=     0.203 Goal=   None    Shift=    0.000
 RMSDP=1.93D-06 MaxDP=1.15D-05 DE=-8.27D-05 OVMax= 1.29D-05

 Cycle   6  Pass 1  IDiag  1:
 E= -919.762878677917     Delta-E=       -0.000000016691 Rises=F Damp=F
 DIIS: error= 5.02D-06 at cycle   2 NSaved=   2.
 NSaved= 2 IEnMin= 2 EnMin= -919.762878677917     IErMin= 2 ErrMin= 5.02D-06
 ErrMax= 5.02D-06  0.00D+00 EMaxC= 1.00D-01 BMatC= 1.06D-09 BMatP= 4.96D-08
 IDIUse=1 WtCom= 1.00D+00 WtEn= 0.00D+00
 Coeff-Com:  0.498D-01 0.950D+00
 Coeff:      0.498D-01 0.950D+00
 Gap=     0.203 Goal=   None    Shift=    0.000
 RMSDP=1.73D-06 MaxDP=2.22D-05 DE=-1.67D-08 OVMax= 1.19D-05

 Cycle   7  Pass 1  IDiag  1:
 E= -919.762878678484     Delta-E=       -0.000000000568 Rises=F Damp=F
 DIIS: error= 2.07D-06 at cycle   3 NSaved=   3.
 NSaved= 3 IEnMin= 3 EnMin= -919.762878678484     IErMin= 3 ErrMin= 2.07D-06
 ErrMax= 2.07D-06  0.00D+00 EMaxC= 1.00D-01 BMatC= 3.36D-10 BMatP= 1.06D-09
 IDIUse=1 WtCom= 1.00D+00 WtEn= 0.00D+00
 Coeff-Com: -0.460D-02 0.352D+00 0.653D+00
 Coeff:     -0.460D-02 0.352D+00 0.653D+00
 Gap=     0.203 Goal=   None    Shift=    0.000
 RMSDP=5.62D-07 MaxDP=6.22D-06 DE=-5.68D-10 OVMax= 5.51D-06

 Cycle   8  Pass 1  IDiag  1:
 E= -919.762878678799     Delta-E=       -0.000000000314 Rises=F Damp=F
 DIIS: error= 4.19D-07 at cycle   4 NSaved=   4.
 NSaved= 4 IEnMin= 4 EnMin= -919.762878678799     IErMin= 4 ErrMin= 4.19D-07
 ErrMax= 4.19D-07  0.00D+00 EMaxC= 1.00D-01 BMatC= 6.43D-12 BMatP= 3.36D-10
 IDIUse=1 WtCom= 1.00D+00 WtEn= 0.00D+00
 Coeff-Com: -0.281D-02 0.103D+00 0.236D+00 0.664D+00
 Coeff:     -0.281D-02 0.103D+00 0.236D+00 0.664D+00
 Gap=     0.203 Goal=   None    Shift=    0.000
 RMSDP=6.37D-08 MaxDP=3.22D-07 DE=-3.14D-10 OVMax= 8.75D-07

 Cycle   9  Pass 1  IDiag  1:
 E= -919.762878678806     Delta-E=       -0.000000000008 Rises=F Damp=F
 DIIS: error= 1.86D-08 at cycle   5 NSaved=   5.
 NSaved= 5 IEnMin= 5 EnMin= -919.762878678806     IErMin= 5 ErrMin= 1.86D-08
 ErrMax= 1.86D-08  0.00D+00 EMaxC= 1.00D-01 BMatC= 2.51D-14 BMatP= 6.43D-12
 IDIUse=1 WtCom= 1.00D+00 WtEn= 0.00D+00
 Coeff-Com: -0.101D-03-0.102D-03 0.708D-02 0.698D-01 0.923D+00
 Coeff:     -0.101D-03-0.102D-03 0.708D-02 0.698D-01 0.923D+00
 Gap=     0.203 Goal=   None    Shift=    0.000
 RMSDP=7.47D-09 MaxDP=9.55D-08 DE=-7.50D-12 OVMax= 8.99D-09

 SCF Done:  E(RPBE1PBE) =  -919.762878679     A.U. after    9 cycles
            NFock=  9  Conv=0.75D-08     -V/T= 2.0016
 KE= 9.182586195200D+02 PE=-2.339897088484D+03 EE= 4.256274736793D+02
 Leave Link  502 at Sat Sep 12 23:28:41 2015, MaxMem=   268435456 cpu:         0.7
 (Enter /usr/local/research/Gaussian09/g09-revD.01/g09/l508.exe)
 QCSCF skips out because SCF is already converged.
 Leave Link  508 at Sat Sep 12 23:28:41 2015, MaxMem=   268435456 cpu:         0.0
 (Enter /usr/local/research/Gaussian09/g09-revD.01/g09/l701.exe)
 Compute integral first derivatives.
 ... and contract with generalized density number  0.
 R6Disp: Adding Grimme-D3(BJ) dispersion energy 1st derivatives to the gradient.
   8 Symmetry operations used in ECPInt.
 ECPInt:  NShTT=     136 NPrTT=     712 LenC2=     136 LenP2D=     595.
 LDataN:  DoStor=T MaxTD1= 5 Len=  102
 Leave Link  701 at Sat Sep 12 23:28:41 2015, MaxMem=   268435456 cpu:         0.6
 (Enter /usr/local/research/Gaussian09/g09-revD.01/g09/l702.exe)
 L702 exits ... SP integral derivatives will be done elsewhere.
 Leave Link  702 at Sat Sep 12 23:28:41 2015, MaxMem=   268435456 cpu:         0.1
 (Enter /usr/local/research/Gaussian09/g09-revD.01/g09/l703.exe)
 Compute integral first derivatives, UseDBF=F ICtDFT=           0.
 Integral derivatives from FoFJK, PRISM(SPDF).
 Calling FoFJK, ICntrl=      2127 FMM=F ISym2X=1 I1Cent= 0 IOpClX= 0 NMat=1 NMatS=1 NMatT=0.
 FoFJK:  IHMeth= 1 ICntrl=    2127 DoSepK=F KAlg= 0 I1Cent=   0 FoldK=F
 IRaf=         0 NMat=   1 IRICut=       1 DoRegI=T DoRafI=F ISym2E= 1.
 FoFCou: FMM=F IPFlag=           0 FMFlag=      100000 FMFlg1=         800
         NFxFlg=           0 DoJE=F BraDBF=F KetDBF=F FulRan=T
         wScrn=  0.000000 ICntrl=    2127 IOpCl=  0 I1Cent=           0 NGrid=           0
         NMat0=    1 NMatS0=      1 NMatT0=    0 NMatD0=    1 NMtDS0=    0 NMtDT0=    0
 Petite list used in FoFCou.
 Leave Link  703 at Sat Sep 12 23:28:41 2015, MaxMem=   268435456 cpu:         0.6
 (Enter /usr/local/research/Gaussian09/g09-revD.01/g09/l716.exe)
 Dipole        =-1.57772181D-30 0.00000000D+00 0.00000000D+00
 ***** Axes restored to original set *****
 -------------------------------------------------------------------
 Center     Atomic                   Forces (Hartrees/Bohr)
 Number     Number              X              Y              Z
 -------------------------------------------------------------------
      1       17           0.007490193    0.000000000    0.000000000
      2       17          -0.007490193    0.000000000    0.000000000
 -------------------------------------------------------------------
 Cartesian Forces:  Max     0.007490193 RMS     0.004324465
 Leave Link  716 at Sat Sep 12 23:28:42 2015, MaxMem=   268435456 cpu:         0.1
 (Enter /usr/local/research/Gaussian09/g09-revD.01/g09/l103.exe)

 GradGradGradGradGradGradGradGradGradGradGradGradGradGradGradGradGradGrad
 Berny optimization.
 Using GEDIIS/GDIIS optimizer.
 Red2BG is reusing G-inverse.
 Internal  Forces:  Max     0.007490193 RMS     0.007490193
 Search for a local minimum.
 Step number   2 out of a maximum of   20
 All quantities printed in internal units (Hartrees-Bohrs-Radians)
 RMS Force = .74902D-02 SwitMx=.10000D-02 MixMth= 1
 Mixed Optimization -- RFO/linear search
 Update second derivatives using D2CorX and points    1    2
 DE= -6.13D-04 DEPred=-4.38D-04 R= 1.40D+00
 TightC=F SS=  1.41D+00  RLast= 4.86D-02 DXNew= 5.0454D-01 1.4566D-01
 Trust test= 1.40D+00 RLast= 4.86D-02 DXMaxT set to 3.00D-01
 The second derivative matrix:
                          R1
           R1           0.21648
 ITU=  1  0
 Use linear search instead of GDIIS.
     Eigenvalues ---    0.21648
 RFO step:  Lambda= 0.00000000D+00 EMin= 2.16478274D-01
 Quartic linear search produced a step of  0.80125.
 Iteration  1 RMS(Cart)=  0.02750918 RMS(Int)=  0.00000000
 Iteration  2 RMS(Cart)=  0.00000000 RMS(Int)=  0.00000000
 ITry= 1 IFail=0 DXMaxC= 1.95D-02 DCOld= 1.00D+10 DXMaxT= 3.00D-01 DXLimC= 3.00D+00 Rises=F
 ClnCor:  largest displacement from symmetrization is 1.19D-18 for atom     2.
 Variable       Old X    -DE/DX   Delta X   Delta X   Delta X     New X
                                 (Linear)    (Quad)   (Total)
    R1        3.79021   0.00749   0.03890   0.00000   0.03890   3.82912
         Item               Value     Threshold  Converged?
 Maximum Force            0.007490     0.000450     NO 
 RMS     Force            0.007490     0.000300     NO 
 Maximum Displacement     0.019452     0.001800     NO 
 RMS     Displacement     0.027509     0.001200     NO 
 Predicted change in Energy=-1.275764D-04
 Lowest energy point so far.  Saving SCF results.
 GradGradGradGradGradGradGradGradGradGradGradGradGradGradGradGradGradGrad

 Leave Link  103 at Sat Sep 12 23:28:42 2015, MaxMem=   268435456 cpu:         0.0
 (Enter /usr/local/research/Gaussian09/g09-revD.01/g09/l202.exe)
                          Input orientation:                          
 ---------------------------------------------------------------------
 Center     Atomic      Atomic             Coordinates (Angstroms)
 Number     Number       Type             X           Y           Z
 ---------------------------------------------------------------------
      1         17           0       -2.189697    0.675676    0.000000
      2         17           0       -4.215978    0.675676    0.000000
 ---------------------------------------------------------------------
 Stoichiometry    Cl2
 Framework group  D*H[C*(Cl.Cl)]
 Deg. of freedom     1
 Full point group                 D*H     NOp   8
 RotChk:  IX=0 Diff= 8.66D-17
 Largest Abelian subgroup         D2H     NOp   8
 Largest concise Abelian subgroup C2      NOp   2
                         Standard orientation:                         
 ---------------------------------------------------------------------
 Center     Atomic      Atomic             Coordinates (Angstroms)
 Number     Number       Type             X           Y           Z
 ---------------------------------------------------------------------
      1         17           0        0.000000    0.000000    1.013140
      2         17           0        0.000000    0.000000   -1.013140
 ---------------------------------------------------------------------
 Rotational constants (GHZ):      0.0000000      7.0399023      7.0399023
 Leave Link  202 at Sat Sep 12 23:28:42 2015, MaxMem=   268435456 cpu:         0.0
 (Enter /usr/local/research/Gaussian09/g09-revD.01/g09/l301.exe)
 Standard basis: def2SVP (5D, 7F)
 Ernie: Thresh=  0.10000D-02 Tol=  0.10000D-05 Strict=F.
 There are    10 symmetry adapted cartesian basis functions of AG  symmetry.
 There are     1 symmetry adapted cartesian basis functions of B1G symmetry.
 There are     4 symmetry adapted cartesian basis functions of B2G symmetry.
 There are     4 symmetry adapted cartesian basis functions of B3G symmetry.
 There are     1 symmetry adapted cartesian basis functions of AU  symmetry.
 There are    10 symmetry adapted cartesian basis functions of B1U symmetry.
 There are     4 symmetry adapted cartesian basis functions of B2U symmetry.
 There are     4 symmetry adapted cartesian basis functions of B3U symmetry.
 There are     9 symmetry adapted basis functions of AG  symmetry.
 There are     1 symmetry adapted basis functions of B1G symmetry.
 There are     4 symmetry adapted basis functions of B2G symmetry.
 There are     4 symmetry adapted basis functions of B3G symmetry.
 There are     1 symmetry adapted basis functions of AU  symmetry.
 There are     9 symmetry adapted basis functions of B1U symmetry.
 There are     4 symmetry adapted basis functions of B2U symmetry.
 There are     4 symmetry adapted basis functions of B3U symmetry.
    36 basis functions,    74 primitive gaussians,    38 cartesian basis functions
    17 alpha electrons       17 beta electrons
       nuclear repulsion energy        75.4743505584 Hartrees.
 IExCor= 1009 DFT=T Ex+Corr=PBE1PBE ExCW=0 ScaHFX=  0.250000
 ScaDFX=  0.750000  0.750000  1.000000  1.000000 ScalE2=  1.000000  1.000000
 IRadAn=      0 IRanWt=     -1 IRanGd=            0 ICorTp=0 IEmpDi=141
 NAtoms=    2 NActive=    2 NUniq=    1 SFac= 4.00D+00 NAtFMM=   60 NAOKFM=F Big=F
 Integral buffers will be    131072 words long.
 Raffenetti 2 integral format.
 Two-electron integral symmetry is turned on.
 R6Disp:  Grimme-D3(BJ) Dispersion energy=       -0.0009245334 Hartrees.
 Nuclear repulsion after empirical dispersion term =       75.4734260250 Hartrees.
 Leave Link  301 at Sat Sep 12 23:28:42 2015, MaxMem=   268435456 cpu:         0.2
 (Enter /usr/local/research/Gaussian09/g09-revD.01/g09/l302.exe)
 NPDir=0 NMtPBC=     1 NCelOv=     1 NCel=       1 NClECP=     1 NCelD=      1
         NCelK=      1 NCelE2=     1 NClLst=     1 CellRange=     0.0.
 One-electron integrals computed using PRISM.
 One-electron integral symmetry used in STVInt
   8 Symmetry operations used in ECPInt.
 ECPInt:  NShTT=     136 NPrTT=     712 LenC2=     136 LenP2D=     595.
 LDataN:  DoStor=T MaxTD1= 4 Len=   56
 NBasis=    36 RedAO= T EigKep=  5.92D-02  NBF=     9     1     4     4     1     9     4     4
 NBsUse=    36 1.00D-06 EigRej= -1.00D+00 NBFU=     9     1     4     4     1     9     4     4
 Precomputing XC quadrature grid using
 IXCGrd= 4 IRadAn=           0 IRanWt=          -1 IRanGd=           0 AccXCQ= 0.00D+00.
 Generated NRdTot=       0 NPtTot=           0 NUsed=           0 NTot=          32
 NSgBfM=    37    37    37    37    37 MxSgAt=     2 MxSgA2=     2.
 Leave Link  302 at Sat Sep 12 23:28:42 2015, MaxMem=   268435456 cpu:         0.6
 (Enter /usr/local/research/Gaussian09/g09-revD.01/g09/l303.exe)
 DipDrv:  MaxL=1.
 Leave Link  303 at Sat Sep 12 23:28:42 2015, MaxMem=   268435456 cpu:         0.1
 (Enter /usr/local/research/Gaussian09/g09-revD.01/g09/l401.exe)
 Initial guess from the checkpoint file:  "Cl2_forDissoc.chk"
 B after Tr=     0.000000    0.000000    0.000000
         Rot=    1.000000    0.000000    0.000000    0.000000 Ang=   0.00 deg.
 Guess basis will be translated and rotated to current coordinates.
 JPrj=2 DoOrth=T DoCkMO=T.
 Initial guess orbital symmetries:
       Occupied  (SGU) (SGG) (SGU) (SGG) (SGG) (SGU) (PIG) (PIG)
                 (PIU) (PIU) (SGG) (SGU) (SGG) (PIU) (PIU) (PIG)
                 (PIG)
       Virtual   (SGG) (SGG) (DLTG) (SGG) (DLTG) (PIG) (PIG) (PIG)
                 (PIG) (DLTU) (SGU) (SGU) (DLTU) (SGU) (SGU) (PIU)
                 (PIU) (PIU) (PIU)
 The electronic state of the initial guess is 1-SGG.
 Leave Link  401 at Sat Sep 12 23:28:42 2015, MaxMem=   268435456 cpu:         0.2
 (Enter /usr/local/research/Gaussian09/g09-revD.01/g09/l502.exe)
 Closed shell SCF:
 Using DIIS extrapolation, IDIIS=  1040.
 Integral symmetry usage will be decided dynamically.
 Keep R1 ints in memory in symmetry-blocked form, NReq=1096799.
 IVT=       10962 IEndB=       10962 NGot=   268435456 MDV=   268390340
 LenX=   268390340 LenY=   268388455
 Requested convergence on RMS density matrix=1.00D-08 within  64 cycles.
 Requested convergence on MAX density matrix=1.00D-06.
 Requested convergence on             energy=1.00D-06.
 No special actions if energy rises.
 FoFCou: FMM=F IPFlag=           0 FMFlag=           0 FMFlg1=           0
         NFxFlg=           0 DoJE=F BraDBF=F KetDBF=F FulRan=T
         wScrn=  0.000000 ICntrl=     600 IOpCl=  0 I1Cent=           0 NGrid=           0
         NMat0=    1 NMatS0=    666 NMatT0=    0 NMatD0=    1 NMtDS0=    0 NMtDT0=    0
 Petite list used in FoFCou.

 Cycle   1  Pass 1  IDiag  1:
 E= -919.762921624504    
 DIIS: error= 1.60D-03 at cycle   1 NSaved=   1.
 NSaved= 1 IEnMin= 1 EnMin= -919.762921624504     IErMin= 1 ErrMin= 1.60D-03
 ErrMax= 1.60D-03  0.00D+00 EMaxC= 1.00D-01 BMatC= 7.25D-05 BMatP= 7.25D-05
 IDIUse=3 WtCom= 9.84D-01 WtEn= 1.60D-02
 Coeff-Com:  0.100D+01
 Coeff-En:   0.100D+01
 Coeff:      0.100D+01
 Gap=     0.255 Goal=   None    Shift=    0.000
 GapD=    0.255 DampG=1.000 DampE=1.000 DampFc=1.0000 IDamp=-1.
 RMSDP=3.37D-04 MaxDP=2.17D-03              OVMax= 1.55D-03

 Cycle   2  Pass 1  IDiag  1:
 E= -919.763013642337     Delta-E=       -0.000092017833 Rises=F Damp=F
 DIIS: error= 3.73D-04 at cycle   2 NSaved=   2.
 NSaved= 2 IEnMin= 2 EnMin= -919.763013642337     IErMin= 2 ErrMin= 3.73D-04
 ErrMax= 3.73D-04  0.00D+00 EMaxC= 1.00D-01 BMatC= 7.06D-06 BMatP= 7.25D-05
 IDIUse=3 WtCom= 9.96D-01 WtEn= 3.73D-03
 Coeff-Com:  0.148D+00 0.852D+00
 Coeff-En:   0.000D+00 0.100D+01
 Coeff:      0.147D+00 0.853D+00
 Gap=     0.198 Goal=   None    Shift=    0.000
 RMSDP=1.11D-04 MaxDP=9.37D-04 DE=-9.20D-05 OVMax= 1.66D-03

 Cycle   3  Pass 1  IDiag  1:
 E= -919.763019118510     Delta-E=       -0.000005476173 Rises=F Damp=F
 DIIS: error= 2.48D-04 at cycle   3 NSaved=   3.
 NSaved= 3 IEnMin= 3 EnMin= -919.763019118510     IErMin= 3 ErrMin= 2.48D-04
 ErrMax= 2.48D-04  0.00D+00 EMaxC= 1.00D-01 BMatC= 2.33D-06 BMatP= 7.06D-06
 IDIUse=3 WtCom= 9.98D-01 WtEn= 2.48D-03
 Coeff-Com: -0.250D-01 0.352D+00 0.673D+00
 Coeff-En:   0.000D+00 0.162D+00 0.838D+00
 Coeff:     -0.250D-01 0.352D+00 0.673D+00
 Gap=     0.198 Goal=   None    Shift=    0.000
 RMSDP=3.33D-05 MaxDP=2.01D-04 DE=-5.48D-06 OVMax= 4.19D-04

 Cycle   4  Pass 1  IDiag  1:
 E= -919.763021496620     Delta-E=       -0.000002378111 Rises=F Damp=F
 DIIS: error= 4.03D-06 at cycle   4 NSaved=   4.
 NSaved= 4 IEnMin= 4 EnMin= -919.763021496620     IErMin= 4 ErrMin= 4.03D-06
 ErrMax= 4.03D-06  0.00D+00 EMaxC= 1.00D-01 BMatC= 6.13D-10 BMatP= 2.33D-06
 IDIUse=1 WtCom= 1.00D+00 WtEn= 0.00D+00
 Coeff-Com: -0.809D-03-0.523D-02-0.633D-02 0.101D+01
 Coeff:     -0.809D-03-0.523D-02-0.633D-02 0.101D+01
 Gap=     0.198 Goal=   None    Shift=    0.000
 RMSDP=1.43D-06 MaxDP=8.57D-06 DE=-2.38D-06 OVMax= 1.73D-05

 Cycle   5  Pass 1  IDiag  1:
 E= -919.763021497406     Delta-E=       -0.000000000785 Rises=F Damp=F
 DIIS: error= 1.42D-06 at cycle   5 NSaved=   5.
 NSaved= 5 IEnMin= 5 EnMin= -919.763021497406     IErMin= 5 ErrMin= 1.42D-06
 ErrMax= 1.42D-06  0.00D+00 EMaxC= 1.00D-01 BMatC= 1.15D-10 BMatP= 6.13D-10
 IDIUse=1 WtCom= 1.00D+00 WtEn= 0.00D+00
 Coeff-Com: -0.255D-04-0.437D-02-0.797D-02 0.312D+00 0.700D+00
 Coeff:     -0.255D-04-0.437D-02-0.797D-02 0.312D+00 0.700D+00
 Gap=     0.198 Goal=   None    Shift=    0.000
 RMSDP=4.10D-07 MaxDP=5.15D-06 DE=-7.85D-10 OVMax= 3.64D-07

 Cycle   6  Pass 1  IDiag  1:
 E= -919.763021497509     Delta-E=       -0.000000000104 Rises=F Damp=F
 DIIS: error= 7.48D-08 at cycle   6 NSaved=   6.
 NSaved= 6 IEnMin= 6 EnMin= -919.763021497509     IErMin= 6 ErrMin= 7.48D-08
 ErrMax= 7.48D-08  0.00D+00 EMaxC= 1.00D-01 BMatC= 2.03D-13 BMatP= 1.15D-10
 IDIUse=1 WtCom= 1.00D+00 WtEn= 0.00D+00
 Coeff-Com:  0.260D-04-0.116D-03-0.470D-03-0.139D-01-0.238D-01 0.104D+01
 Coeff:      0.260D-04-0.116D-03-0.470D-03-0.139D-01-0.238D-01 0.104D+01
 Gap=     0.198 Goal=   None    Shift=    0.000
 RMSDP=1.64D-08 MaxDP=9.34D-08 DE=-1.04D-10 OVMax= 2.26D-07

 Cycle   7  Pass 1  IDiag  1:
 E= -919.763021497508     Delta-E=        0.000000000001 Rises=F Damp=F
 DIIS: error= 5.83D-09 at cycle   7 NSaved=   7.
 NSaved= 7 IEnMin= 6 EnMin= -919.763021497509     IErMin= 7 ErrMin= 5.83D-09
 ErrMax= 5.83D-09  0.00D+00 EMaxC= 1.00D-01 BMatC= 1.64D-15 BMatP= 2.03D-13
 IDIUse=1 WtCom= 1.00D+00 WtEn= 0.00D+00
 Coeff-Com: -0.105D-06 0.169D-04 0.795D-05-0.743D-03-0.634D-03-0.157D-01
 Coeff-Com:  0.102D+01
 Coeff:     -0.105D-06 0.169D-04 0.795D-05-0.743D-03-0.634D-03-0.157D-01
 Coeff:      0.102D+01
 Gap=     0.198 Goal=   None    Shift=    0.000
 RMSDP=1.24D-09 MaxDP=9.30D-09 DE= 1.36D-12 OVMax= 2.18D-10

 SCF Done:  E(RPBE1PBE) =  -919.763021498     A.U. after    7 cycles
            NFock=  7  Conv=0.12D-08     -V/T= 2.0017
 KE= 9.182196301390D+02 PE=-2.338314654856D+03 EE= 4.248585771943D+02
 Leave Link  502 at Sat Sep 12 23:28:43 2015, MaxMem=   268435456 cpu:         0.6
 (Enter /usr/local/research/Gaussian09/g09-revD.01/g09/l508.exe)
 QCSCF skips out because SCF is already converged.
 Leave Link  508 at Sat Sep 12 23:28:43 2015, MaxMem=   268435456 cpu:         0.0
 (Enter /usr/local/research/Gaussian09/g09-revD.01/g09/l701.exe)
 Compute integral first derivatives.
 ... and contract with generalized density number  0.
 R6Disp: Adding Grimme-D3(BJ) dispersion energy 1st derivatives to the gradient.
   8 Symmetry operations used in ECPInt.
 ECPInt:  NShTT=     136 NPrTT=     712 LenC2=     136 LenP2D=     595.
 LDataN:  DoStor=T MaxTD1= 5 Len=  102
 Leave Link  701 at Sat Sep 12 23:28:43 2015, MaxMem=   268435456 cpu:         0.6
 (Enter /usr/local/research/Gaussian09/g09-revD.01/g09/l702.exe)
 L702 exits ... SP integral derivatives will be done elsewhere.
 Leave Link  702 at Sat Sep 12 23:28:43 2015, MaxMem=   268435456 cpu:         0.1
 (Enter /usr/local/research/Gaussian09/g09-revD.01/g09/l703.exe)
 Compute integral first derivatives, UseDBF=F ICtDFT=           0.
 Integral derivatives from FoFJK, PRISM(SPDF).
 Calling FoFJK, ICntrl=      2127 FMM=F ISym2X=1 I1Cent= 0 IOpClX= 0 NMat=1 NMatS=1 NMatT=0.
 FoFJK:  IHMeth= 1 ICntrl=    2127 DoSepK=F KAlg= 0 I1Cent=   0 FoldK=F
 IRaf=         0 NMat=   1 IRICut=       1 DoRegI=T DoRafI=F ISym2E= 1.
 FoFCou: FMM=F IPFlag=           0 FMFlag=      100000 FMFlg1=         800
         NFxFlg=           0 DoJE=F BraDBF=F KetDBF=F FulRan=T
         wScrn=  0.000000 ICntrl=    2127 IOpCl=  0 I1Cent=           0 NGrid=           0
         NMat0=    1 NMatS0=      1 NMatT0=    0 NMatD0=    1 NMtDS0=    0 NMtDT0=    0
 Petite list used in FoFCou.
 Leave Link  703 at Sat Sep 12 23:28:43 2015, MaxMem=   268435456 cpu:         0.6
 (Enter /usr/local/research/Gaussian09/g09-revD.01/g09/l716.exe)
 Dipole        =-4.73316543D-30-1.54074396D-33 0.00000000D+00
 ***** Axes restored to original set *****
 -------------------------------------------------------------------
 Center     Atomic                   Forces (Hartrees/Bohr)
 Number     Number              X              Y              Z
 -------------------------------------------------------------------
      1       17          -0.000020669    0.000000000    0.000000000
      2       17           0.000020669    0.000000000    0.000000000
 -------------------------------------------------------------------
 Cartesian Forces:  Max     0.000020669 RMS     0.000011933
 Leave Link  716 at Sat Sep 12 23:28:43 2015, MaxMem=   268435456 cpu:         0.1
 (Enter /usr/local/research/Gaussian09/g09-revD.01/g09/l103.exe)

 GradGradGradGradGradGradGradGradGradGradGradGradGradGradGradGradGradGrad
 Berny optimization.
 Using GEDIIS/GDIIS optimizer.
 Red2BG is reusing G-inverse.
 Internal  Forces:  Max     0.000020669 RMS     0.000020669
 Search for a local minimum.
 Step number   3 out of a maximum of   20
 All quantities printed in internal units (Hartrees-Bohrs-Radians)
 RMS Force = .20669D-04 SwitMx=.10000D-02 MixMth= 2
 Mixed Optimization -- En-DIIS/RFO-DIIS
 Update second derivatives using D2CorX and points    2    3
 DE= -1.43D-04 DEPred=-1.28D-04 R= 1.12D+00
 TightC=F SS=  1.41D+00  RLast= 3.89D-02 DXNew= 5.0454D-01 1.1671D-01
 Trust test= 1.12D+00 RLast= 3.89D-02 DXMaxT set to 3.00D-01
 The second derivative matrix:
                          R1
           R1           0.19306
 ITU=  1  1
 Use linear search instead of GDIIS.
     Eigenvalues ---    0.19306
 RFO step:  Lambda= 0.00000000D+00 EMin= 1.93062115D-01
 Quartic linear search produced a step of -0.00290.
 Iteration  1 RMS(Cart)=  0.00007971 RMS(Int)=  0.00000000
 Iteration  2 RMS(Cart)=  0.00000000 RMS(Int)=  0.00000000
 ITry= 1 IFail=0 DXMaxC= 5.64D-05 DCOld= 1.00D+10 DXMaxT= 3.00D-01 DXLimC= 3.00D+00 Rises=F
 ClnCor:  largest displacement from symmetrization is 3.45D-21 for atom     2.
 Variable       Old X    -DE/DX   Delta X   Delta X   Delta X     New X
                                 (Linear)    (Quad)   (Total)
    R1        3.82912  -0.00002  -0.00011   0.00000  -0.00011   3.82900
         Item               Value     Threshold  Converged?
 Maximum Force            0.000021     0.000450     YES
 RMS     Force            0.000021     0.000300     YES
 Maximum Displacement     0.000056     0.001800     YES
 RMS     Displacement     0.000080     0.001200     YES
 Predicted change in Energy=-1.103260D-09
 Optimization completed.
    -- Stationary point found.
                           ----------------------------
                           !   Optimized Parameters   !
                           ! (Angstroms and Degrees)  !
 --------------------------                            --------------------------
 ! Name  Definition              Value          Derivative Info.                !
 --------------------------------------------------------------------------------
 ! R1    R(1,2)                  2.0263         -DE/DX =    0.0                 !
 --------------------------------------------------------------------------------
 Lowest energy point so far.  Saving SCF results.
 GradGradGradGradGradGradGradGradGradGradGradGradGradGradGradGradGradGrad

 Largest change from initial coordinates is atom    1       0.023 Angstoms.
 Leave Link  103 at Sat Sep 12 23:28:44 2015, MaxMem=   268435456 cpu:         0.0
 (Enter /usr/local/research/Gaussian09/g09-revD.01/g09/l202.exe)
                          Input orientation:                          
 ---------------------------------------------------------------------
 Center     Atomic      Atomic             Coordinates (Angstroms)
 Number     Number       Type             X           Y           Z
 ---------------------------------------------------------------------
      1         17           0       -2.189697    0.675676    0.000000
      2         17           0       -4.215978    0.675676    0.000000
 ---------------------------------------------------------------------
 Stoichiometry    Cl2
 Framework group  D*H[C*(Cl.Cl)]
 Deg. of freedom     1
 Full point group                 D*H     NOp   8
 RotChk:  IX=0 Diff= 8.66D-17
 Largest Abelian subgroup         D2H     NOp   8
 Largest concise Abelian subgroup C2      NOp   2
                         Standard orientation:                         
 ---------------------------------------------------------------------
 Center     Atomic      Atomic             Coordinates (Angstroms)
 Number     Number       Type             X           Y           Z
 ---------------------------------------------------------------------
      1         17           0        0.000000    0.000000    1.013140
      2         17           0        0.000000    0.000000   -1.013140
 ---------------------------------------------------------------------
 Rotational constants (GHZ):      0.0000000      7.0399023      7.0399023
 Leave Link  202 at Sat Sep 12 23:28:44 2015, MaxMem=   268435456 cpu:         0.0
 (Enter /usr/local/research/Gaussian09/g09-revD.01/g09/l601.exe)
 Copying SCF densities to generalized density rwf, IOpCl= 0 IROHF=0.

 **********************************************************************

            Population analysis using the SCF density.

 **********************************************************************

 Orbital symmetries:
       Occupied  (SGU) (SGG) (SGU) (SGG) (SGG) (SGU) (PIG) (PIG)
                 (PIU) (PIU) (SGG) (SGU) (SGG) (PIU) (PIU) (PIG)
                 (PIG)
       Virtual   (SGU) (SGG) (SGU) (SGG) (PIU) (PIU) (DLTG) (DLTG)
                 (DLTU) (DLTU) (PIG) (PIG) (SGU) (PIU) (PIU) (PIG)
                 (PIG) (SGG) (SGU)
 The electronic state is 1-SGG.
 Alpha  occ. eigenvalues -- -101.73180-101.73176  -9.58183  -9.58181  -7.32701
 Alpha  occ. eigenvalues --   -7.32692  -7.31121  -7.31121  -7.31121  -7.31121
 Alpha  occ. eigenvalues --   -0.95103  -0.78590  -0.48049  -0.41539  -0.41539
 Alpha  occ. eigenvalues --   -0.31598  -0.31598
 Alpha virt. eigenvalues --   -0.11809   0.41848   0.52948   0.56542   0.59709
 Alpha virt. eigenvalues --    0.59709   0.73519   0.73523   0.77647   0.77650
 Alpha virt. eigenvalues --    0.79257   0.79257   0.80919   0.84444   0.84444
 Alpha virt. eigenvalues --    1.02299   1.02299   1.04053   1.42228
          Condensed to atoms (all electrons):
               1          2
     1  Cl  16.871683   0.128317
     2  Cl   0.128317  16.871683
 Mulliken charges:
               1
     1  Cl   0.000000
     2  Cl   0.000000
 Sum of Mulliken charges =   0.00000
 Mulliken charges with hydrogens summed into heavy atoms:
               1
     1  Cl   0.000000
     2  Cl   0.000000
 Electronic spatial extent (au):  <R**2>=            177.8814
 Charge=              0.0000 electrons
 Dipole moment (field-independent basis, Debye):
    X=              0.0000    Y=              0.0000    Z=              0.0000  Tot=              0.0000
 Quadrupole moment (field-independent basis, Debye-Ang):
   XX=            -24.9153   YY=            -24.9153   ZZ=            -21.7970
   XY=              0.0000   XZ=              0.0000   YZ=              0.0000
 Traceless Quadrupole moment (field-independent basis, Debye-Ang):
   XX=             -1.0394   YY=             -1.0394   ZZ=              2.0788
   XY=              0.0000   XZ=              0.0000   YZ=              0.0000
 Octapole moment (field-independent basis, Debye-Ang**2):
  XXX=              0.0000  YYY=              0.0000  ZZZ=              0.0000  XYY=              0.0000
  XXY=              0.0000  XXZ=              0.0000  XZZ=              0.0000  YZZ=              0.0000
  YYZ=              0.0000  XYZ=              0.0000
 Hexadecapole moment (field-independent basis, Debye-Ang**3):
 XXXX=            -24.9166 YYYY=            -24.9166 ZZZZ=           -149.9601 XXXY=              0.0000
 XXXZ=              0.0000 YYYX=              0.0000 YYYZ=              0.0000 ZZZX=              0.0000
 ZZZY=              0.0000 XXYY=             -8.3055 XXZZ=            -33.5337 YYZZ=            -33.5337
 XXYZ=              0.0000 YYXZ=              0.0000 ZZXY=              0.0000
 N-N= 7.547342602504D+01 E-N=-2.338314654293D+03  KE= 9.182196301390D+02
 Symmetry AG   KE= 3.692777210789D+02
 Symmetry B1G  KE= 3.484979101482D-35
 Symmetry B2G  KE= 4.629799156325D+01
 Symmetry B3G  KE= 4.629799156325D+01
 Symmetry AU   KE= 8.956562975684D-35
 Symmetry B1U  KE= 3.654244784315D+02
 Symmetry B2U  KE= 4.546072375102D+01
 Symmetry B3U  KE= 4.546072375102D+01
 No NMR shielding tensors so no spin-rotation constants.
 Leave Link  601 at Sat Sep 12 23:28:44 2015, MaxMem=   268435456 cpu:         0.5
 (Enter /usr/local/research/Gaussian09/g09-revD.01/g09/l9999.exe)
 1\1\GINC-HEISENBERG007\FOpt\RPBE1PBE\def2SVP\Cl2\SAVILL\12-Sep-2015\0\
 \#p opt freq scf=xqc pbe1pbe def2svp empiricaldispersion=gd3bj\\-- "Cl
 2 Optimisation" --\\0,1\Cl,-2.1896973937,0.67567567,0.\Cl,-4.215978006
 3,0.67567567,0.\\Version=EM64L-G09RevD.01\State=1-SGG\HF=-919.7630215\
 RMSD=1.235e-09\RMSF=1.193e-05\Dipole=0.,0.,0.\Quadrupole=1.5455397,-0.
 7727698,-0.7727698,0.,0.,0.\PG=D*H [C*(Cl1.Cl1)]\\@


 "WOULD YOU TELL ME PLEASE, WHICH WAY I OUGHT TO WALK FROM HERE?"
 "THAT DEPENDS A GREAT DEAL ON WHERE YOU WANT TO GO," SAID THE CAT.
 "I DON'T MUCH CARE WHERE -- ", SAID ALICE.
 "THEN IT DOESN'T MATTER WHICH WAY YOU WALK," SAID THE CAT.

                                      -- LEWIS CARROLL
 Leave Link 9999 at Sat Sep 12 23:28:44 2015, MaxMem=   268435456 cpu:         0.1
 Job cpu time:       0 days  0 hours  0 minutes 11.9 seconds.
 File lengths (MBytes):  RWF=      5 Int=      0 D2E=      0 Chk=      1 Scr=      1
 Normal termination of Gaussian 09 at Sat Sep 12 23:28:44 2015.
 (Enter /usr/local/research/Gaussian09/g09-revD.01/g09/l1.exe)
 Link1:  Proceeding to internal job step number  2.
 ---------------------------------------------------------------------
 #P Geom=AllCheck Guess=TCheck SCRF=Check GenChk RPBE1PBE/def2SVP Freq
 ---------------------------------------------------------------------
 1/10=4,29=7,30=1,38=1,40=1/1,3;
 2/12=2,40=1/2;
 3/5=43,7=101,11=2,14=-4,16=1,25=1,30=1,70=2,71=2,74=-13,116=1,124=41,140=1/1,2,3;
 4/5=101/1;
 5/5=2,8=3,13=1,98=1/2,8;
 8/6=4,10=90,11=11/1;
 11/6=1,8=1,9=11,15=111,16=1/1,2,10;
 10/6=1/2;
 6/7=2,8=2,9=2,10=2,18=1,28=1/1;
 7/8=1,10=1,25=1/1,2,3,16;
 1/10=4,30=1/3;
 99//99;
 Leave Link    1 at Sat Sep 12 23:28:44 2015, MaxMem=   268435456 cpu:         0.2
 (Enter /usr/local/research/Gaussian09/g09-revD.01/g09/l101.exe)
 Structure from the checkpoint file:  "Cl2_forDissoc.chk"
 ------------------------
 -- "Cl2 Optimisation" --
 ------------------------
 Charge =  0 Multiplicity = 1
 Redundant internal coordinates found in file.
 Cl,0,-2.1896973937,0.67567567,0.
 Cl,0,-4.2159780063,0.67567567,0.
 Recover connectivity data from disk.
 NAtoms=      2 NQM=        2 NQMF=       0 NMMI=      0 NMMIF=      0
                NMic=       0 NMicF=      0.
                    Isotopes and Nuclear Properties:
 (Nuclear quadrupole moments (NQMom) in fm**2, nuclear magnetic moments (NMagM)
  in nuclear magnetons)

  Atom         1           2
 IAtWgt=          35          35
 AtmWgt=  34.9688527  34.9688527
 NucSpn=           3           3
 AtZEff= -14.2400000 -14.2400000
 NQMom=   -8.1650000  -8.1650000
 NMagM=    0.8218740   0.8218740
 AtZNuc=  17.0000000  17.0000000
 Leave Link  101 at Sat Sep 12 23:28:44 2015, MaxMem=   268435456 cpu:         0.3
 (Enter /usr/local/research/Gaussian09/g09-revD.01/g09/l103.exe)

 GradGradGradGradGradGradGradGradGradGradGradGradGradGradGradGradGradGrad
 Berny optimization.
 Initialization pass.
                           ----------------------------
                           !    Initial Parameters    !
                           ! (Angstroms and Degrees)  !
 --------------------------                            --------------------------
 ! Name  Definition              Value          Derivative Info.                !
 --------------------------------------------------------------------------------
 ! R1    R(1,2)                  2.0263         calculate D2E/DX2 analytically  !
 --------------------------------------------------------------------------------
 Trust Radius=3.00D-01 FncErr=1.00D-07 GrdErr=1.00D-07
 Number of steps in this run=      2 maximum allowed number of steps=      2.
 GradGradGradGradGradGradGradGradGradGradGradGradGradGradGradGradGradGrad

 Leave Link  103 at Sat Sep 12 23:28:44 2015, MaxMem=   268435456 cpu:         0.0
 (Enter /usr/local/research/Gaussian09/g09-revD.01/g09/l202.exe)
                          Input orientation:                          
 ---------------------------------------------------------------------
 Center     Atomic      Atomic             Coordinates (Angstroms)
 Number     Number       Type             X           Y           Z
 ---------------------------------------------------------------------
      1         17           0       -2.189697    0.675676    0.000000
      2         17           0       -4.215978    0.675676    0.000000
 ---------------------------------------------------------------------
 Stoichiometry    Cl2
 Framework group  D*H[C*(Cl.Cl)]
 Deg. of freedom     1
 Full point group                 D*H     NOp   8
 RotChk:  IX=0 Diff= 8.66D-17
 Largest Abelian subgroup         D2H     NOp   8
 Largest concise Abelian subgroup C2      NOp   2
                         Standard orientation:                         
 ---------------------------------------------------------------------
 Center     Atomic      Atomic             Coordinates (Angstroms)
 Number     Number       Type             X           Y           Z
 ---------------------------------------------------------------------
      1         17           0        0.000000    0.000000    1.013140
      2         17           0        0.000000    0.000000   -1.013140
 ---------------------------------------------------------------------
 Rotational constants (GHZ):      0.0000000      7.0399023      7.0399023
 Leave Link  202 at Sat Sep 12 23:28:45 2015, MaxMem=   268435456 cpu:         0.0
 (Enter /usr/local/research/Gaussian09/g09-revD.01/g09/l301.exe)
 Standard basis: def2SVP (5D, 7F)
 Ernie: Thresh=  0.10000D-02 Tol=  0.10000D-05 Strict=F.
 There are    10 symmetry adapted cartesian basis functions of AG  symmetry.
 There are     1 symmetry adapted cartesian basis functions of B1G symmetry.
 There are     4 symmetry adapted cartesian basis functions of B2G symmetry.
 There are     4 symmetry adapted cartesian basis functions of B3G symmetry.
 There are     1 symmetry adapted cartesian basis functions of AU  symmetry.
 There are    10 symmetry adapted cartesian basis functions of B1U symmetry.
 There are     4 symmetry adapted cartesian basis functions of B2U symmetry.
 There are     4 symmetry adapted cartesian basis functions of B3U symmetry.
 There are     9 symmetry adapted basis functions of AG  symmetry.
 There are     1 symmetry adapted basis functions of B1G symmetry.
 There are     4 symmetry adapted basis functions of B2G symmetry.
 There are     4 symmetry adapted basis functions of B3G symmetry.
 There are     1 symmetry adapted basis functions of AU  symmetry.
 There are     9 symmetry adapted basis functions of B1U symmetry.
 There are     4 symmetry adapted basis functions of B2U symmetry.
 There are     4 symmetry adapted basis functions of B3U symmetry.
    36 basis functions,    74 primitive gaussians,    38 cartesian basis functions
    17 alpha electrons       17 beta electrons
       nuclear repulsion energy        75.4743505584 Hartrees.
 IExCor= 1009 DFT=T Ex+Corr=PBE1PBE ExCW=0 ScaHFX=  0.250000
 ScaDFX=  0.750000  0.750000  1.000000  1.000000 ScalE2=  1.000000  1.000000
 IRadAn=      0 IRanWt=     -1 IRanGd=            0 ICorTp=0 IEmpDi=141
 NAtoms=    2 NActive=    2 NUniq=    1 SFac= 4.00D+00 NAtFMM=   60 NAOKFM=F Big=F
 Integral buffers will be    131072 words long.
 Raffenetti 2 integral format.
 Two-electron integral symmetry is turned on.
 R6Disp:  Grimme-D3(BJ) Dispersion energy=       -0.0009245334 Hartrees.
 Nuclear repulsion after empirical dispersion term =       75.4734260250 Hartrees.
 Leave Link  301 at Sat Sep 12 23:28:45 2015, MaxMem=   268435456 cpu:         0.1
 (Enter /usr/local/research/Gaussian09/g09-revD.01/g09/l302.exe)
 NPDir=0 NMtPBC=     1 NCelOv=     1 NCel=       1 NClECP=     1 NCelD=      1
         NCelK=      1 NCelE2=     1 NClLst=     1 CellRange=     0.0.
 One-electron integrals computed using PRISM.
 One-electron integral symmetry used in STVInt
   8 Symmetry operations used in ECPInt.
 ECPInt:  NShTT=     136 NPrTT=     712 LenC2=     136 LenP2D=     595.
 LDataN:  DoStor=T MaxTD1= 4 Len=   56
 NBasis=    36 RedAO= T EigKep=  5.92D-02  NBF=     9     1     4     4     1     9     4     4
 NBsUse=    36 1.00D-06 EigRej= -1.00D+00 NBFU=     9     1     4     4     1     9     4     4
 Precomputing XC quadrature grid using
 IXCGrd= 4 IRadAn=           0 IRanWt=          -1 IRanGd=           0 AccXCQ= 0.00D+00.
 Generated NRdTot=       0 NPtTot=           0 NUsed=           0 NTot=          32
 NSgBfM=    37    37    37    37    37 MxSgAt=     2 MxSgA2=     2.
 Leave Link  302 at Sat Sep 12 23:28:45 2015, MaxMem=   268435456 cpu:         0.5
 (Enter /usr/local/research/Gaussian09/g09-revD.01/g09/l303.exe)
 DipDrv:  MaxL=1.
 Leave Link  303 at Sat Sep 12 23:28:45 2015, MaxMem=   268435456 cpu:         0.1
 (Enter /usr/local/research/Gaussian09/g09-revD.01/g09/l401.exe)
 Initial guess from the checkpoint file:  "Cl2_forDissoc.chk"
 B after Tr=     0.000000    0.000000    0.000000
         Rot=    1.000000    0.000000    0.000000    0.000000 Ang=   0.00 deg.
 Guess basis will be translated and rotated to current coordinates.
 JPrj=2 DoOrth=T DoCkMO=T.
 Initial guess orbital symmetries:
       Occupied  (SGU) (SGG) (SGU) (SGG) (SGG) (SGU) (PIG) (PIG)
                 (PIU) (PIU) (SGG) (SGU) (SGG) (PIU) (PIU) (PIG)
                 (PIG)
       Virtual   (SGU) (SGG) (SGU) (SGG) (PIU) (PIU) (DLTG) (DLTG)
                 (DLTU) (DLTU) (PIG) (PIG) (SGU) (PIU) (PIU) (PIG)
                 (PIG) (SGG) (SGU)
 The electronic state of the initial guess is 1-SGG.
 Leave Link  401 at Sat Sep 12 23:28:45 2015, MaxMem=   268435456 cpu:         0.2
 (Enter /usr/local/research/Gaussian09/g09-revD.01/g09/l502.exe)
 Closed shell SCF:
 Using DIIS extrapolation, IDIIS=  1040.
 Integral symmetry usage will be decided dynamically.
 Keep R1 ints in memory in symmetry-blocked form, NReq=1096799.
 IVT=       10962 IEndB=       10962 NGot=   268435456 MDV=   268390340
 LenX=   268390340 LenY=   268388455
 Requested convergence on RMS density matrix=1.00D-08 within  64 cycles.
 Requested convergence on MAX density matrix=1.00D-06.
 Requested convergence on             energy=1.00D-06.
 No special actions if energy rises.
 FoFCou: FMM=F IPFlag=           0 FMFlag=           0 FMFlg1=           0
         NFxFlg=           0 DoJE=F BraDBF=F KetDBF=F FulRan=T
         wScrn=  0.000000 ICntrl=     600 IOpCl=  0 I1Cent=           0 NGrid=           0
         NMat0=    1 NMatS0=    666 NMatT0=    0 NMatD0=    1 NMtDS0=    0 NMtDT0=    0
 Petite list used in FoFCou.

 Cycle   1  Pass 1  IDiag  1:
 E= -919.763021497508    
 DIIS: error= 1.69D-10 at cycle   1 NSaved=   1.
 NSaved= 1 IEnMin= 1 EnMin= -919.763021497508     IErMin= 1 ErrMin= 1.69D-10
 ErrMax= 1.69D-10  0.00D+00 EMaxC= 1.00D-01 BMatC= 7.56D-19 BMatP= 7.56D-19
 IDIUse=1 WtCom= 1.00D+00 WtEn= 0.00D+00
 Coeff-Com:  0.100D+01
 Coeff:      0.100D+01
 Gap=     0.198 Goal=   None    Shift=    0.000
 Skip diagonalization as Alpha Fock matrix is already diagonal.
 RMSDP=0.00D+00 MaxDP=0.00D+00              OVMax= 0.00D+00

 SCF Done:  E(RPBE1PBE) =  -919.763021498     A.U. after    1 cycles
            NFock=  1  Conv=0.00D+00     -V/T= 2.0017
 KE= 9.182196301390D+02 PE=-2.338314654293D+03 EE= 4.248585766313D+02
 Leave Link  502 at Sat Sep 12 23:28:46 2015, MaxMem=   268435456 cpu:         0.5
 (Enter /usr/local/research/Gaussian09/g09-revD.01/g09/l508.exe)
 QCSCF skips out because SCF is already converged.
 Leave Link  508 at Sat Sep 12 23:28:46 2015, MaxMem=   268435456 cpu:         0.0
 (Enter /usr/local/research/Gaussian09/g09-revD.01/g09/l801.exe)
 DoSCS=F DFT=T ScalE2(SS,OS)=  1.000000  1.000000
 Range of M.O.s used for correlation:     1    36
 NBasis=    36 NAE=    17 NBE=    17 NFC=     0 NFV=     0
 NROrb=     36 NOA=    17 NOB=    17 NVA=    19 NVB=    19
 Leave Link  801 at Sat Sep 12 23:28:46 2015, MaxMem=   268435456 cpu:         0.0
 (Enter /usr/local/research/Gaussian09/g09-revD.01/g09/l1101.exe)
 Using compressed storage, NAtomX=     2.
 Will process      3 centers per pass.
   8 Symmetry operations used in ECPInt.
 ECPInt:  NShTT=     136 NPrTT=     712 LenC2=     136 LenP2D=     595.
 LDataN:  DoStor=T MaxTD1= 5 Len=  102
 R6Disp: Adding Grimme-D3(BJ) dispersion energy 1st derivatives to the gradient.
 Leave Link 1101 at Sat Sep 12 23:28:46 2015, MaxMem=   268435456 cpu:         0.5
 (Enter /usr/local/research/Gaussian09/g09-revD.01/g09/l1102.exe)
 Symmetrizing basis deriv contribution to polar:
 IMax=3 JMax=2 DiffMx= 0.00D+00
 Leave Link 1102 at Sat Sep 12 23:28:46 2015, MaxMem=   268435456 cpu:         0.1
 (Enter /usr/local/research/Gaussian09/g09-revD.01/g09/l1110.exe)
 Forming Gx(P) for the SCF density, NAtomX=     2.
 Integral derivatives from FoFJK, PRISM(SPDF).
 Do as many integral derivatives as possible in FoFJK.
 G2DrvN: MDV=     268435336.
 G2DrvN: will do     3 centers at a time, making    1 passes.
 Calling FoFCou, ICntrl=  3107 FMM=F I1Cent=   0 AccDes= 0.00D+00.
 FoFJK:  IHMeth= 1 ICntrl=    3107 DoSepK=F KAlg= 0 I1Cent=   0 FoldK=F
 IRaf=         0 NMat=   1 IRICut=       1 DoRegI=T DoRafI=F ISym2E= 1.
 FoFCou: FMM=F IPFlag=           0 FMFlag=      100000 FMFlg1=           0
         NFxFlg=           0 DoJE=F BraDBF=F KetDBF=F FulRan=T
         wScrn=  0.000000 ICntrl=    3107 IOpCl=  0 I1Cent=           0 NGrid=           0
         NMat0=    1 NMatS0=      1 NMatT0=    0 NMatD0=    1 NMtDS0=    0 NMtDT0=    0
 Petite list used in FoFCou.
 End of G2Drv F.D. properties file   721 does not exist.
 End of G2Drv F.D. properties file   722 does not exist.
 End of G2Drv F.D. properties file   788 does not exist.
 Leave Link 1110 at Sat Sep 12 23:28:46 2015, MaxMem=   268435456 cpu:         0.7
 (Enter /usr/local/research/Gaussian09/g09-revD.01/g09/l1002.exe)
 Minotr:  Closed shell wavefunction.
          IDoAtm=11
          Direct CPHF calculation.
          Differentiating once with respect to electric field.
                with respect to dipole field.
          Differentiating once with respect to nuclear coordinates.
          Using symmetry in CPHF.
          Requested convergence is 1.0D-08 RMS, and 1.0D-07 maximum.
          Secondary convergence is 1.0D-12 RMS, and 1.0D-12 maximum.
          NewPWx=T KeepS1=F KeepF1=F KeepIn=T MapXYZ=F SortEE=F KeepMc=T.
          MDV=     268435396 using IRadAn=       2.
 Generate precomputed XC quadrature information.
 Keep R1 ints in memory in symmetry-blocked form, NReq=1085407.
 FoFCou: FMM=F IPFlag=           0 FMFlag=           0 FMFlg1=           0
         NFxFlg=           0 DoJE=F BraDBF=F KetDBF=F FulRan=T
         wScrn=  0.000000 ICntrl=     600 IOpCl=  0 I1Cent=           0 NGrid=           0
         NMat0=    1 NMatS0=    666 NMatT0=    0 NMatD0=    1 NMtDS0=    0 NMtDT0=    0
 Petite list used in FoFCou.
          Solving linear equations simultaneously, MaxMat=       0.
          There are     6 degrees of freedom in the 1st order CPHF.  IDoFFX=4 NUNeed=     6.
      6 vectors produced by pass  0 Test12= 5.38D-15 1.67D-08 XBig12= 3.27D+01 5.47D+00.
 AX will form     6 AO Fock derivatives at one time.
      6 vectors produced by pass  1 Test12= 5.38D-15 1.67D-08 XBig12= 3.76D+00 7.33D-01.
      6 vectors produced by pass  2 Test12= 5.38D-15 1.67D-08 XBig12= 3.06D-01 2.95D-01.
      6 vectors produced by pass  3 Test12= 5.38D-15 1.67D-08 XBig12= 3.33D-03 2.44D-02.
      6 vectors produced by pass  4 Test12= 5.38D-15 1.67D-08 XBig12= 7.42D-06 8.48D-04.
      6 vectors produced by pass  5 Test12= 5.38D-15 1.67D-08 XBig12= 2.68D-08 6.48D-05.
      4 vectors produced by pass  6 Test12= 5.38D-15 1.67D-08 XBig12= 6.66D-12 1.09D-06.
      1 vectors produced by pass  7 Test12= 5.38D-15 1.67D-08 XBig12= 8.73D-15 3.54D-08.
 InvSVY:  IOpt=1 It=  1 EMax= 8.88D-16
 Solved reduced A of dimension    41 with     6 vectors.
 FullF1:  Do perturbations    1 to     6.
 Isotropic polarizability for W=    0.000000       17.54 Bohr**3.
 End of Minotr F.D. properties file   721 does not exist.
 End of Minotr F.D. properties file   722 does not exist.
 End of Minotr F.D. properties file   788 does not exist.
 Leave Link 1002 at Sat Sep 12 23:28:47 2015, MaxMem=   268435456 cpu:         1.1
 (Enter /usr/local/research/Gaussian09/g09-revD.01/g09/l601.exe)
 Copying SCF densities to generalized density rwf, IOpCl= 0 IROHF=0.

 **********************************************************************

            Population analysis using the SCF density.

 **********************************************************************

 Orbital symmetries:
       Occupied  (SGU) (SGG) (SGU) (SGG) (SGG) (SGU) (PIG) (PIG)
                 (PIU) (PIU) (SGG) (SGU) (SGG) (PIU) (PIU) (PIG)
                 (PIG)
       Virtual   (SGU) (SGG) (SGU) (SGG) (PIU) (PIU) (DLTG) (DLTG)
                 (DLTU) (DLTU) (PIG) (PIG) (SGU) (PIU) (PIU) (PIG)
                 (PIG) (SGG) (SGU)
 The electronic state is 1-SGG.
 Alpha  occ. eigenvalues -- -101.73180-101.73176  -9.58183  -9.58181  -7.32701
 Alpha  occ. eigenvalues --   -7.32692  -7.31121  -7.31121  -7.31121  -7.31121
 Alpha  occ. eigenvalues --   -0.95103  -0.78590  -0.48049  -0.41539  -0.41539
 Alpha  occ. eigenvalues --   -0.31598  -0.31598
 Alpha virt. eigenvalues --   -0.11809   0.41848   0.52948   0.56542   0.59709
 Alpha virt. eigenvalues --    0.59709   0.73519   0.73523   0.77647   0.77650
 Alpha virt. eigenvalues --    0.79257   0.79257   0.80919   0.84444   0.84444
 Alpha virt. eigenvalues --    1.02299   1.02299   1.04053   1.42228
          Condensed to atoms (all electrons):
               1          2
     1  Cl  16.871683   0.128317
     2  Cl   0.128317  16.871683
 Mulliken charges:
               1
     1  Cl   0.000000
     2  Cl   0.000000
 Sum of Mulliken charges =   0.00000
 Mulliken charges with hydrogens summed into heavy atoms:
               1
     1  Cl   0.000000
     2  Cl   0.000000
 APT charges:
               1
     1  Cl   0.000000
     2  Cl   0.000000
 Sum of APT charges =   0.00000
 APT charges with hydrogens summed into heavy atoms:
               1
     1  Cl   0.000000
     2  Cl   0.000000
 Electronic spatial extent (au):  <R**2>=            177.8814
 Charge=              0.0000 electrons
 Dipole moment (field-independent basis, Debye):
    X=              0.0000    Y=              0.0000    Z=              0.0000  Tot=              0.0000
 Quadrupole moment (field-independent basis, Debye-Ang):
   XX=            -24.9153   YY=            -24.9153   ZZ=            -21.7970
   XY=              0.0000   XZ=              0.0000   YZ=              0.0000
 Traceless Quadrupole moment (field-independent basis, Debye-Ang):
   XX=             -1.0394   YY=             -1.0394   ZZ=              2.0788
   XY=              0.0000   XZ=              0.0000   YZ=              0.0000
 Octapole moment (field-independent basis, Debye-Ang**2):
  XXX=              0.0000  YYY=              0.0000  ZZZ=              0.0000  XYY=              0.0000
  XXY=              0.0000  XXZ=              0.0000  XZZ=              0.0000  YZZ=              0.0000
  YYZ=              0.0000  XYZ=              0.0000
 Hexadecapole moment (field-independent basis, Debye-Ang**3):
 XXXX=            -24.9166 YYYY=            -24.9166 ZZZZ=           -149.9601 XXXY=              0.0000
 XXXZ=              0.0000 YYYX=              0.0000 YYYZ=              0.0000 ZZZX=              0.0000
 ZZZY=              0.0000 XXYY=             -8.3055 XXZZ=            -33.5337 YYZZ=            -33.5337
 XXYZ=              0.0000 YYXZ=              0.0000 ZZXY=              0.0000
 N-N= 7.547342602504D+01 E-N=-2.338314654293D+03  KE= 9.182196301390D+02
 Symmetry AG   KE= 3.692777210789D+02
 Symmetry B1G  KE= 3.484979101483D-35
 Symmetry B2G  KE= 4.629799156325D+01
 Symmetry B3G  KE= 4.629799156325D+01
 Symmetry AU   KE= 8.956562975684D-35
 Symmetry B1U  KE= 3.654244784315D+02
 Symmetry B2U  KE= 4.546072375102D+01
 Symmetry B3U  KE= 4.546072375102D+01
  Exact polarizability:  10.701   0.000  10.701   0.000   0.000  31.204
 Approx polarizability:  14.538   0.000  14.538   0.000   0.000  53.751
 No NMR shielding tensors so no spin-rotation constants.
 Leave Link  601 at Sat Sep 12 23:28:47 2015, MaxMem=   268435456 cpu:         0.5
 (Enter /usr/local/research/Gaussian09/g09-revD.01/g09/l701.exe)
 Compute integral second derivatives.
 ... and contract with generalized density number  0.
 R6Disp: Adding Grimme-D3(BJ) dispersion energy 2nd derivatives to the Hessian.
   8 Symmetry operations used in ECPInt.
 ECPInt:  NShTT=     136 NPrTT=     712 LenC2=     136 LenP2D=     595.
 LDataN:  DoStor=T MaxTD1= 6 Len=  172
 Leave Link  701 at Sat Sep 12 23:28:47 2015, MaxMem=   268435456 cpu:         0.7
 (Enter /usr/local/research/Gaussian09/g09-revD.01/g09/l702.exe)
 L702 exits ... SP integral derivatives will be done elsewhere.
 Leave Link  702 at Sat Sep 12 23:28:47 2015, MaxMem=   268435456 cpu:         0.1
 (Enter /usr/local/research/Gaussian09/g09-revD.01/g09/l703.exe)
 Compute integral second derivatives, UseDBF=F ICtDFT=           0.
 Integral derivatives from FoFJK, PRISM(SPDF).
 Calling FoFJK, ICntrl=    100127 FMM=F ISym2X=1 I1Cent= 0 IOpClX= 0 NMat=1 NMatS=1 NMatT=0.
 FoFJK:  IHMeth= 1 ICntrl=  100127 DoSepK=F KAlg= 0 I1Cent=   0 FoldK=F
 IRaf=         0 NMat=   1 IRICut=       1 DoRegI=T DoRafI=F ISym2E= 1.
 FoFCou: FMM=F IPFlag=           0 FMFlag=      100000 FMFlg1=         800
         NFxFlg=           0 DoJE=F BraDBF=F KetDBF=F FulRan=T
         wScrn=  0.000000 ICntrl=  100127 IOpCl=  0 I1Cent=           0 NGrid=           0
         NMat0=    1 NMatS0=      1 NMatT0=    0 NMatD0=    1 NMtDS0=    0 NMtDT0=    0
 Petite list used in FoFCou.
 Leave Link  703 at Sat Sep 12 23:28:48 2015, MaxMem=   268435456 cpu:         1.2
 (Enter /usr/local/research/Gaussian09/g09-revD.01/g09/l716.exe)
 Dipole        = 3.98591686D-15 6.33980027D-31 1.05219652D-14
 Polarizability= 1.07012156D+01-1.16700439D-11 1.07012156D+01
                -1.24367110D-10 2.28298980D-11 3.12036203D+01
 Full mass-weighted force constant matrix:
 Low frequencies ---   -0.0070   -0.0045   -0.0045   38.7990   38.7990  526.5081
 Diagonal vibrational polarizability:
        0.0000000       0.0000000       0.0000000
 Harmonic frequencies (cm**-1), IR intensities (KM/Mole), Raman scattering
 activities (A**4/AMU), depolarization ratios for plane and unpolarized
 incident light, reduced masses (AMU), force constants (mDyne/A),
 and normal coordinates:
                      1
                     SGG
 Frequencies --    526.5081
 Red. masses --     34.9689
 Frc consts  --      5.7114
 IR Inten    --      0.0000
  Atom  AN      X      Y      Z
     1  17     0.00   0.00   0.71
     2  17     0.00   0.00  -0.71

 -------------------
 - Thermochemistry -
 -------------------
 Temperature   298.150 Kelvin.  Pressure   1.00000 Atm.
 Atom     1 has atomic number 17 and mass  34.96885
 Atom     2 has atomic number 17 and mass  34.96885
 Molecular mass:    69.93771 amu.
 Principal axes and moments of inertia in atomic units:
                           1         2         3
     Eigenvalues --     0.00000 256.35884 256.35884
           X            0.00000   1.00000   0.00000
           Y            0.00000   0.00000   1.00000
           Z            1.00000   0.00000   0.00000
 This molecule is a prolate symmetric top.
 Rotational symmetry number  2.
 Rotational temperature (Kelvin)      0.33786
 Rotational constant (GHZ):           7.039902
 Zero-point vibrational energy       3149.2 (Joules/Mol)
                                    0.75268 (Kcal/Mol)
 Warning -- explicit consideration of   1 degrees of freedom as
           vibrations may cause significant error
 Vibrational temperatures:    757.53
          (Kelvin)
 
 Zero-point correction=                           0.001199 (Hartree/Particle)
 Thermal correction to Energy=                    0.003765
 Thermal correction to Enthalpy=                  0.004709
 Thermal correction to Gibbs Free Energy=        -0.020632
 Sum of electronic and zero-point Energies=           -919.761822
 Sum of electronic and thermal Energies=              -919.759256
 Sum of electronic and thermal Enthalpies=            -919.758312
 Sum of electronic and thermal Free Energies=         -919.783654
 
                     E (Thermal)             CV                S
                      KCal/Mol        Cal/Mol-Kelvin    Cal/Mol-Kelvin
 Total                    2.363              6.159             53.336
 Electronic               0.000              0.000              0.000
 Translational            0.889              2.981             38.652
 Rotational               0.592              1.987             14.088
 Vibrational              0.881              1.191              0.595
 Vibration     1          0.881              1.191              0.595
                       Q            Log10(Q)             Ln(Q)
 Total Bot       0.309114D+10          9.490119         21.851807
 Total V=0       0.110113D+11         10.041837         23.122185
 Vib (Bot)       0.304741D+00         -0.516069         -1.188293
 Vib (Bot)    1  0.304741D+00         -0.516069         -1.188293
 Vib (V=0)       0.108555D+01          0.035649          0.082085
 Vib (V=0)    1  0.108555D+01          0.035649          0.082085
 Electronic      0.100000D+01          0.000000          0.000000
 Translational   0.229891D+08          7.361522         16.950531
 Rotational      0.441231D+03          2.644666          6.089568
 ***** Axes restored to original set *****
 -------------------------------------------------------------------
 Center     Atomic                   Forces (Hartrees/Bohr)
 Number     Number              X              Y              Z
 -------------------------------------------------------------------
      1       17          -0.000020669    0.000000000    0.000000000
      2       17           0.000020669    0.000000000    0.000000000
 -------------------------------------------------------------------
 Cartesian Forces:  Max     0.000020669 RMS     0.000011933
 Force constants in Cartesian coordinates: 
                1             2             3             4             5 
      1  0.183423D+00
      2  0.000000D+00  0.996057D-03
      3  0.000000D+00  0.000000D+00  0.996057D-03
      4 -0.183423D+00  0.000000D+00  0.000000D+00  0.183423D+00
      5  0.000000D+00 -0.996057D-03  0.000000D+00  0.000000D+00  0.996057D-03
      6  0.000000D+00  0.000000D+00 -0.996057D-03  0.000000D+00  0.000000D+00
                6 
      6  0.996057D-03
 FormGI is forming the generalized inverse of G from B-inverse, IUseBI=4.
 Force constants in internal coordinates: 
                1 
      1  0.183423D+00
 Leave Link  716 at Sat Sep 12 23:28:48 2015, MaxMem=   268435456 cpu:         0.1
 (Enter /usr/local/research/Gaussian09/g09-revD.01/g09/l103.exe)

 GradGradGradGradGradGradGradGradGradGradGradGradGradGradGradGradGradGrad
 Berny optimization.
 Red2BG is reusing G-inverse.
 Internal  Forces:  Max     0.000020669 RMS     0.000020669
 Search for a local minimum.
 Step number   1 out of a maximum of    2
 All quantities printed in internal units (Hartrees-Bohrs-Radians)
 Second derivative matrix not updated -- analytic derivatives used.
 The second derivative matrix:
                          R1
           R1           0.18342
 ITU=  0
     Eigenvalues ---    0.18342
 Angle between quadratic step and forces=   0.00 degrees.
 Linear search not attempted -- first point.
 Iteration  1 RMS(Cart)=  0.00007968 RMS(Int)=  0.00000000
 Iteration  2 RMS(Cart)=  0.00000000 RMS(Int)=  0.00000000
 ITry= 1 IFail=0 DXMaxC= 5.63D-05 DCOld= 1.00D+10 DXMaxT= 3.00D-01 DXLimC= 3.00D+00 Rises=F
 ClnCor:  largest displacement from symmetrization is 3.45D-21 for atom     2.
 Variable       Old X    -DE/DX   Delta X   Delta X   Delta X     New X
                                 (Linear)    (Quad)   (Total)
    R1        3.82912  -0.00002   0.00000  -0.00011  -0.00011   3.82900
         Item               Value     Threshold  Converged?
 Maximum Force            0.000021     0.000450     YES
 RMS     Force            0.000021     0.000300     YES
 Maximum Displacement     0.000056     0.001800     YES
 RMS     Displacement     0.000080     0.001200     YES
 Predicted change in Energy=-1.164568D-09
 Optimization completed.
    -- Stationary point found.
                           ----------------------------
                           !   Optimized Parameters   !
                           ! (Angstroms and Degrees)  !
 --------------------------                            --------------------------
 ! Name  Definition              Value          Derivative Info.                !
 --------------------------------------------------------------------------------
 ! R1    R(1,2)                  2.0263         -DE/DX =    0.0                 !
 --------------------------------------------------------------------------------
 GradGradGradGradGradGradGradGradGradGradGradGradGradGradGradGradGradGrad

 Leave Link  103 at Sat Sep 12 23:28:48 2015, MaxMem=   268435456 cpu:         0.0
 (Enter /usr/local/research/Gaussian09/g09-revD.01/g09/l9999.exe)
 1\1\GINC-HEISENBERG007\Freq\RPBE1PBE\def2SVP\Cl2\SAVILL\12-Sep-2015\0\
 \#P Geom=AllCheck Guess=TCheck SCRF=Check GenChk RPBE1PBE/def2SVP Freq
 \\-- "Cl2 Optimisation" --\\0,1\Cl,-2.1896973937,0.67567567,0.\Cl,-4.2
 159780063,0.67567567,0.\\Version=EM64L-G09RevD.01\State=1-SGG\HF=-919.
 7630215\RMSD=0.000e+00\RMSF=1.193e-05\ZeroPoint=0.0011995\Thermal=0.00
 37652\Dipole=0.,0.,0.\DipoleDeriv=0.,0.,0.,0.,0.,0.,0.,0.,0.,0.,0.,0.,
 0.,0.,0.,0.,0.,0.\Polar=31.2036203,0.,10.7012156,0.,0.,10.7012156\PG=D
 *H [C*(Cl1.Cl1)]\NImag=0\\0.18342268,0.,0.00099606,0.,0.,0.00099606,-0
 .18342268,0.,0.,0.18342268,0.,-0.00099606,0.,0.,0.00099606,0.,0.,-0.00
 099606,0.,0.,0.00099606\\0.00002067,0.,0.,-0.00002067,0.,0.\\\@


 ABOVE ALL I AM AN OPTIMIST FOR NUMBER THEORY,
 AND I HOLD THE HOPE THAT WE MAY NOT BE FAR FROM
 A TIME WHEN IRREFUTABLE ARITHMETIC WILL CELEBRATE
 ITS TRIUMPHS IN PHYSICS AND CHEMISTRY.
   -- HERMANN MINKOWSKI, 1905
 Job cpu time:       0 days  0 hours  0 minutes  7.3 seconds.
 File lengths (MBytes):  RWF=      5 Int=      0 D2E=      0 Chk=      1 Scr=      1
 Normal termination of Gaussian 09 at Sat Sep 12 23:28:48 2015.
