 Entering Gaussian System, Link 0=g09
 Initial command:
 /usr/local/research/Gaussian09/g09-revD.01/g09/l1.exe "/scratch/38172.heisenberg.scps.vuw.ac.nz/Gau-8964.inp" -scrdir="/scratch/38172.heisenberg.scps.vuw.ac.nz/"
 Entering Link 1 = /usr/local/research/Gaussian09/g09-revD.01/g09/l1.exe PID=      8966.
  
 Copyright (c) 1988,1990,1992,1993,1995,1998,2003,2009,2013,
            Gaussian, Inc.  All Rights Reserved.
  
 This is part of the Gaussian(R) 09 program.  It is based on
 the Gaussian(R) 03 system (copyright 2003, Gaussian, Inc.),
 the Gaussian(R) 98 system (copyright 1998, Gaussian, Inc.),
 the Gaussian(R) 94 system (copyright 1995, Gaussian, Inc.),
 the Gaussian 92(TM) system (copyright 1992, Gaussian, Inc.),
 the Gaussian 90(TM) system (copyright 1990, Gaussian, Inc.),
 the Gaussian 88(TM) system (copyright 1988, Gaussian, Inc.),
 the Gaussian 86(TM) system (copyright 1986, Carnegie Mellon
 University), and the Gaussian 82(TM) system (copyright 1983,
 Carnegie Mellon University). Gaussian is a federally registered
 trademark of Gaussian, Inc.
  
 This software contains proprietary and confidential information,
 including trade secrets, belonging to Gaussian, Inc.
  
 This software is provided under written license and may be
 used, copied, transmitted, or stored only in accord with that
 written license.
  
 The following legend is applicable only to US Government
 contracts under FAR:
  
                    RESTRICTED RIGHTS LEGEND
  
 Use, reproduction and disclosure by the US Government is
 subject to restrictions as set forth in subparagraphs (a)
 and (c) of the Commercial Computer Software - Restricted
 Rights clause in FAR 52.227-19.
  
 Gaussian, Inc.
 340 Quinnipiac St., Bldg. 40, Wallingford CT 06492
  
  
 ---------------------------------------------------------------
 Warning -- This program may not be used in any manner that
 competes with the business of Gaussian, Inc. or will provide
 assistance to any competitor of Gaussian, Inc.  The licensee
 of this program is prohibited from giving any competitor of
 Gaussian, Inc. access to this program.  By using this program,
 the user acknowledges that Gaussian, Inc. is engaged in the
 business of creating and licensing software in the field of
 computational chemistry and represents and warrants to the
 licensee that it is not a competitor of Gaussian, Inc. and that
 it will not use this program in any manner prohibited above.
 ---------------------------------------------------------------
  

 Cite this work as:
 Gaussian 09, Revision D.01,
 M. J. Frisch, G. W. Trucks, H. B. Schlegel, G. E. Scuseria, 
 M. A. Robb, J. R. Cheeseman, G. Scalmani, V. Barone, B. Mennucci, 
 G. A. Petersson, H. Nakatsuji, M. Caricato, X. Li, H. P. Hratchian, 
 A. F. Izmaylov, J. Bloino, G. Zheng, J. L. Sonnenberg, M. Hada, 
 M. Ehara, K. Toyota, R. Fukuda, J. Hasegawa, M. Ishida, T. Nakajima, 
 Y. Honda, O. Kitao, H. Nakai, T. Vreven, J. A. Montgomery, Jr., 
 J. E. Peralta, F. Ogliaro, M. Bearpark, J. J. Heyd, E. Brothers, 
 K. N. Kudin, V. N. Staroverov, T. Keith, R. Kobayashi, J. Normand, 
 K. Raghavachari, A. Rendell, J. C. Burant, S. S. Iyengar, J. Tomasi, 
 M. Cossi, N. Rega, J. M. Millam, M. Klene, J. E. Knox, J. B. Cross, 
 V. Bakken, C. Adamo, J. Jaramillo, R. Gomperts, R. E. Stratmann, 
 O. Yazyev, A. J. Austin, R. Cammi, C. Pomelli, J. W. Ochterski, 
 R. L. Martin, K. Morokuma, V. G. Zakrzewski, G. A. Voth, 
 P. Salvador, J. J. Dannenberg, S. Dapprich, A. D. Daniels, 
 O. Farkas, J. B. Foresman, J. V. Ortiz, J. Cioslowski, 
 and D. J. Fox, Gaussian, Inc., Wallingford CT, 2013.
 
 ******************************************
 Gaussian 09:  EM64L-G09RevD.01 24-Apr-2013
                 9-Jun-2015 
 ******************************************
 %mem=4096mb
 %NProcShared=4
 Will use up to    4 processors via shared memory.
 %chk=02-dielsalder-r.chk
 ----------------------------------------------------------------------
 #p pbe1pbe EmpiricalDispersion=GD3BJ def2svp geom=allcheck guess=read 
 integral=(grid=ultrafine) freq scf=(conver=10,xqc) pop=(hirshfeld,cm5)
  density=current iop(7/33=1) iop(6/80=1)
 ----------------------------------------------------------------------
 1/10=4,29=7,30=1,38=1/1,3;
 2/12=2,40=1/2;
 3/5=43,7=101,11=2,14=-4,16=1,25=1,30=1,71=2,74=-13,75=-5,116=-2,124=41,140=1/1,2,3;
 4/5=1/1;
 5/5=2,6=10,8=3,13=1,38=6,98=1/2,8;
 8/6=4,10=90,11=11/1;
 11/6=1,8=1,9=11,15=111,16=1/1,2,10;
 10/6=1/2;
 6/7=2,8=2,9=2,10=2,18=1,22=-1,28=1,79=2,80=1/1;
 7/8=1,10=1,25=1,33=1/1,2,3,16;
 1/10=4,30=1/3;
 99//99;
 Leave Link    1 at Tue Jun  9 16:08:57 2015, MaxMem=   536870912 cpu:         0.4
 (Enter /usr/local/research/Gaussian09/g09-revD.01/g09/l101.exe)
 Structure from the checkpoint file:  "02-dielsalder-r.chk"
 -------------------------
 -- Dielsalder Reactant --
 -------------------------
 Charge =  0 Multiplicity = 1
 Redundant internal coordinates found in file.
 C,0,1.0836992183,0.3329838997,1.1748318231
 H,0,1.0217511056,0.656611145,2.2146106374
 C,0,1.3261302769,-0.9202928078,0.7317850913
 H,0,1.4978350929,-1.80147149,1.3527229346
 C,0,1.3261302769,-0.9202928078,-0.7317850913
 H,0,1.4978350929,-1.80147149,-1.3527229346
 C,0,1.0836992183,0.3329838997,-1.1748318231
 H,0,1.0217511056,0.656611145,-2.2146106374
 C,0,-2.595803216,-0.1212874467,0.6658461722
 H,0,-1.7220881476,-0.4589956034,1.2316984605
 H,0,-3.4634295422,0.2163877355,1.2416485929
 C,0,-2.595803216,-0.1212874467,-0.6658461722
 H,0,-3.4634295422,0.2163877355,-1.2416485929
 H,0,-1.7220881476,-0.4589956034,-1.2316984605
 C,0,0.9002308402,1.2387857692,0.
 H,0,-0.1046448554,1.7021047438,0.
 H,0,1.6211477733,2.0775862857,0.
 Recover connectivity data from disk.
 NAtoms=     17 NQM=       17 NQMF=       0 NMMI=      0 NMMIF=      0
                NMic=       0 NMicF=      0.
                    Isotopes and Nuclear Properties:
 (Nuclear quadrupole moments (NQMom) in fm**2, nuclear magnetic moments (NMagM)
  in nuclear magnetons)

  Atom         1           2           3           4           5           6           7           8           9          10
 IAtWgt=          12           1          12           1          12           1          12           1          12           1
 AtmWgt=  12.0000000   1.0078250  12.0000000   1.0078250  12.0000000   1.0078250  12.0000000   1.0078250  12.0000000   1.0078250
 NucSpn=           0           1           0           1           0           1           0           1           0           1
 AtZEff=  -3.6000000  -1.0000000  -3.6000000  -1.0000000  -3.6000000  -1.0000000  -3.6000000  -1.0000000  -3.6000000  -1.0000000
 NQMom=    0.0000000   0.0000000   0.0000000   0.0000000   0.0000000   0.0000000   0.0000000   0.0000000   0.0000000   0.0000000
 NMagM=    0.0000000   2.7928460   0.0000000   2.7928460   0.0000000   2.7928460   0.0000000   2.7928460   0.0000000   2.7928460
 AtZNuc=   6.0000000   1.0000000   6.0000000   1.0000000   6.0000000   1.0000000   6.0000000   1.0000000   6.0000000   1.0000000

  Atom        11          12          13          14          15          16          17
 IAtWgt=           1          12           1           1          12           1           1
 AtmWgt=   1.0078250  12.0000000   1.0078250   1.0078250  12.0000000   1.0078250   1.0078250
 NucSpn=           1           0           1           1           0           1           1
 AtZEff=  -1.0000000  -3.6000000  -1.0000000  -1.0000000  -3.6000000  -1.0000000  -1.0000000
 NQMom=    0.0000000   0.0000000   0.0000000   0.0000000   0.0000000   0.0000000   0.0000000
 NMagM=    2.7928460   0.0000000   2.7928460   2.7928460   0.0000000   2.7928460   2.7928460
 AtZNuc=   1.0000000   6.0000000   1.0000000   1.0000000   6.0000000   1.0000000   1.0000000
 Leave Link  101 at Tue Jun  9 16:08:57 2015, MaxMem=   536870912 cpu:         0.3
 (Enter /usr/local/research/Gaussian09/g09-revD.01/g09/l103.exe)

 GradGradGradGradGradGradGradGradGradGradGradGradGradGradGradGradGradGrad
 Berny optimization.
 Initialization pass.
                           ----------------------------
                           !    Initial Parameters    !
                           ! (Angstroms and Degrees)  !
 --------------------------                            --------------------------
 ! Name  Definition              Value          Derivative Info.                !
 --------------------------------------------------------------------------------
 ! R1    R(1,2)                  1.0907         calculate D2E/DX2 analytically  !
 ! R2    R(1,3)                  1.3512         calculate D2E/DX2 analytically  !
 ! R3    R(1,10)                 2.916          calculate D2E/DX2 analytically  !
 ! R4    R(1,15)                 1.4948         calculate D2E/DX2 analytically  !
 ! R5    R(3,4)                  1.0916         calculate D2E/DX2 analytically  !
 ! R6    R(3,5)                  1.4636         calculate D2E/DX2 analytically  !
 ! R7    R(5,6)                  1.0916         calculate D2E/DX2 analytically  !
 ! R8    R(5,7)                  1.3512         calculate D2E/DX2 analytically  !
 ! R9    R(7,8)                  1.0907         calculate D2E/DX2 analytically  !
 ! R10   R(7,14)                 2.916          calculate D2E/DX2 analytically  !
 ! R11   R(7,15)                 1.4948         calculate D2E/DX2 analytically  !
 ! R12   R(9,10)                 1.0944         calculate D2E/DX2 analytically  !
 ! R13   R(9,11)                 1.0947         calculate D2E/DX2 analytically  !
 ! R14   R(9,12)                 1.3317         calculate D2E/DX2 analytically  !
 ! R15   R(10,16)                2.9671         calculate D2E/DX2 analytically  !
 ! R16   R(12,13)                1.0947         calculate D2E/DX2 analytically  !
 ! R17   R(12,14)                1.0944         calculate D2E/DX2 analytically  !
 ! R18   R(14,16)                2.9671         calculate D2E/DX2 analytically  !
 ! R19   R(15,16)                1.1065         calculate D2E/DX2 analytically  !
 ! R20   R(15,17)                1.106          calculate D2E/DX2 analytically  !
 ! A1    A(2,1,3)              126.7239         calculate D2E/DX2 analytically  !
 ! A2    A(2,1,10)              90.4209         calculate D2E/DX2 analytically  !
 ! A3    A(2,1,15)             124.2267         calculate D2E/DX2 analytically  !
 ! A4    A(3,1,10)              85.8204         calculate D2E/DX2 analytically  !
 ! A5    A(3,1,15)             109.0487         calculate D2E/DX2 analytically  !
 ! A6    A(10,1,15)             93.5437         calculate D2E/DX2 analytically  !
 ! A7    A(1,3,4)              126.1892         calculate D2E/DX2 analytically  !
 ! A8    A(1,3,5)              109.1407         calculate D2E/DX2 analytically  !
 ! A9    A(4,3,5)              124.67           calculate D2E/DX2 analytically  !
 ! A10   A(3,5,6)              124.67           calculate D2E/DX2 analytically  !
 ! A11   A(3,5,7)              109.1407         calculate D2E/DX2 analytically  !
 ! A12   A(6,5,7)              126.1892         calculate D2E/DX2 analytically  !
 ! A13   A(5,7,8)              126.7239         calculate D2E/DX2 analytically  !
 ! A14   A(5,7,14)              85.8204         calculate D2E/DX2 analytically  !
 ! A15   A(5,7,15)             109.0487         calculate D2E/DX2 analytically  !
 ! A16   A(8,7,14)              90.4209         calculate D2E/DX2 analytically  !
 ! A17   A(8,7,15)             124.2267         calculate D2E/DX2 analytically  !
 ! A18   A(14,7,15)             93.5437         calculate D2E/DX2 analytically  !
 ! A19   A(10,9,11)            117.129          calculate D2E/DX2 analytically  !
 ! A20   A(10,9,12)            121.1355         calculate D2E/DX2 analytically  !
 ! A21   A(11,9,12)            121.7353         calculate D2E/DX2 analytically  !
 ! A22   A(1,10,9)             132.4012         calculate D2E/DX2 analytically  !
 ! A23   A(1,10,16)             43.076          calculate D2E/DX2 analytically  !
 ! A24   A(9,10,16)             89.7601         calculate D2E/DX2 analytically  !
 ! A25   A(9,12,13)            121.7353         calculate D2E/DX2 analytically  !
 ! A26   A(9,12,14)            121.1355         calculate D2E/DX2 analytically  !
 ! A27   A(13,12,14)           117.129          calculate D2E/DX2 analytically  !
 ! A28   A(7,14,12)            132.4012         calculate D2E/DX2 analytically  !
 ! A29   A(7,14,16)             43.076          calculate D2E/DX2 analytically  !
 ! A30   A(12,14,16)            89.7601         calculate D2E/DX2 analytically  !
 ! A31   A(1,15,7)             103.6184         calculate D2E/DX2 analytically  !
 ! A32   A(1,15,16)            111.4192         calculate D2E/DX2 analytically  !
 ! A33   A(1,15,17)            112.3066         calculate D2E/DX2 analytically  !
 ! A34   A(7,15,16)            111.4192         calculate D2E/DX2 analytically  !
 ! A35   A(7,15,17)            112.3066         calculate D2E/DX2 analytically  !
 ! A36   A(16,15,17)           105.9247         calculate D2E/DX2 analytically  !
 ! A37   A(10,16,14)            49.0539         calculate D2E/DX2 analytically  !
 ! A38   A(10,16,15)           100.9571         calculate D2E/DX2 analytically  !
 ! A39   A(14,16,15)           100.9571         calculate D2E/DX2 analytically  !
 ! D1    D(2,1,3,4)             -0.0379         calculate D2E/DX2 analytically  !
 ! D2    D(2,1,3,5)           -179.9579         calculate D2E/DX2 analytically  !
 ! D3    D(10,1,3,4)           -87.4399         calculate D2E/DX2 analytically  !
 ! D4    D(10,1,3,5)            92.6401         calculate D2E/DX2 analytically  !
 ! D5    D(15,1,3,4)          -179.7514         calculate D2E/DX2 analytically  !
 ! D6    D(15,1,3,5)             0.3285         calculate D2E/DX2 analytically  !
 ! D7    D(2,1,10,9)           118.3857         calculate D2E/DX2 analytically  !
 ! D8    D(2,1,10,16)          108.433          calculate D2E/DX2 analytically  !
 ! D9    D(3,1,10,9)          -114.8136         calculate D2E/DX2 analytically  !
 ! D10   D(3,1,10,16)         -124.7663         calculate D2E/DX2 analytically  !
 ! D11   D(15,1,10,9)           -5.9483         calculate D2E/DX2 analytically  !
 ! D12   D(15,1,10,16)         -15.901          calculate D2E/DX2 analytically  !
 ! D13   D(2,1,15,7)           179.7757         calculate D2E/DX2 analytically  !
 ! D14   D(2,1,15,16)          -60.3124         calculate D2E/DX2 analytically  !
 ! D15   D(2,1,15,17)           58.3411         calculate D2E/DX2 analytically  !
 ! D16   D(3,1,15,7)            -0.502          calculate D2E/DX2 analytically  !
 ! D17   D(3,1,15,16)          119.4099         calculate D2E/DX2 analytically  !
 ! D18   D(3,1,15,17)         -121.9367         calculate D2E/DX2 analytically  !
 ! D19   D(10,1,15,7)          -87.2992         calculate D2E/DX2 analytically  !
 ! D20   D(10,1,15,16)          32.6127         calculate D2E/DX2 analytically  !
 ! D21   D(10,1,15,17)         151.2661         calculate D2E/DX2 analytically  !
 ! D22   D(1,3,5,6)            179.9216         calculate D2E/DX2 analytically  !
 ! D23   D(1,3,5,7)              0.0            calculate D2E/DX2 analytically  !
 ! D24   D(4,3,5,6)              0.0            calculate D2E/DX2 analytically  !
 ! D25   D(4,3,5,7)           -179.9216         calculate D2E/DX2 analytically  !
 ! D26   D(3,5,7,8)            179.9579         calculate D2E/DX2 analytically  !
 ! D27   D(3,5,7,14)           -92.6401         calculate D2E/DX2 analytically  !
 ! D28   D(3,5,7,15)            -0.3285         calculate D2E/DX2 analytically  !
 ! D29   D(6,5,7,8)              0.0379         calculate D2E/DX2 analytically  !
 ! D30   D(6,5,7,14)            87.4399         calculate D2E/DX2 analytically  !
 ! D31   D(6,5,7,15)           179.7514         calculate D2E/DX2 analytically  !
 ! D32   D(5,7,14,12)          114.8136         calculate D2E/DX2 analytically  !
 ! D33   D(5,7,14,16)          124.7663         calculate D2E/DX2 analytically  !
 ! D34   D(8,7,14,12)         -118.3857         calculate D2E/DX2 analytically  !
 ! D35   D(8,7,14,16)         -108.433          calculate D2E/DX2 analytically  !
 ! D36   D(15,7,14,12)           5.9483         calculate D2E/DX2 analytically  !
 ! D37   D(15,7,14,16)          15.901          calculate D2E/DX2 analytically  !
 ! D38   D(5,7,15,1)             0.502          calculate D2E/DX2 analytically  !
 ! D39   D(5,7,15,16)         -119.4099         calculate D2E/DX2 analytically  !
 ! D40   D(5,7,15,17)          121.9367         calculate D2E/DX2 analytically  !
 ! D41   D(8,7,15,1)          -179.7757         calculate D2E/DX2 analytically  !
 ! D42   D(8,7,15,16)           60.3124         calculate D2E/DX2 analytically  !
 ! D43   D(8,7,15,17)          -58.3411         calculate D2E/DX2 analytically  !
 ! D44   D(14,7,15,1)           87.2992         calculate D2E/DX2 analytically  !
 ! D45   D(14,7,15,16)         -32.6127         calculate D2E/DX2 analytically  !
 ! D46   D(14,7,15,17)        -151.2661         calculate D2E/DX2 analytically  !
 ! D47   D(11,9,10,1)         -125.498          calculate D2E/DX2 analytically  !
 ! D48   D(11,9,10,16)        -118.7189         calculate D2E/DX2 analytically  !
 ! D49   D(12,9,10,1)           54.3747         calculate D2E/DX2 analytically  !
 ! D50   D(12,9,10,16)          61.1538         calculate D2E/DX2 analytically  !
 ! D51   D(10,9,12,13)        -179.8668         calculate D2E/DX2 analytically  !
 ! D52   D(10,9,12,14)           0.0            calculate D2E/DX2 analytically  !
 ! D53   D(11,9,12,13)           0.0            calculate D2E/DX2 analytically  !
 ! D54   D(11,9,12,14)         179.8668         calculate D2E/DX2 analytically  !
 ! D55   D(1,10,16,14)         117.1699         calculate D2E/DX2 analytically  !
 ! D56   D(1,10,16,15)          22.1018         calculate D2E/DX2 analytically  !
 ! D57   D(9,10,16,14)         -55.4974         calculate D2E/DX2 analytically  !
 ! D58   D(9,10,16,15)        -150.5655         calculate D2E/DX2 analytically  !
 ! D59   D(9,12,14,7)          -54.3747         calculate D2E/DX2 analytically  !
 ! D60   D(9,12,14,16)         -61.1538         calculate D2E/DX2 analytically  !
 ! D61   D(13,12,14,7)         125.498          calculate D2E/DX2 analytically  !
 ! D62   D(13,12,14,16)        118.7189         calculate D2E/DX2 analytically  !
 ! D63   D(7,14,16,10)        -117.1699         calculate D2E/DX2 analytically  !
 ! D64   D(7,14,16,15)         -22.1018         calculate D2E/DX2 analytically  !
 ! D65   D(12,14,16,10)         55.4974         calculate D2E/DX2 analytically  !
 ! D66   D(12,14,16,15)        150.5655         calculate D2E/DX2 analytically  !
 ! D67   D(1,15,16,10)         -32.5801         calculate D2E/DX2 analytically  !
 ! D68   D(1,15,16,14)         -82.6069         calculate D2E/DX2 analytically  !
 ! D69   D(7,15,16,10)          82.6069         calculate D2E/DX2 analytically  !
 ! D70   D(7,15,16,14)          32.5801         calculate D2E/DX2 analytically  !
 ! D71   D(17,15,16,10)       -154.9866         calculate D2E/DX2 analytically  !
 ! D72   D(17,15,16,14)        154.9866         calculate D2E/DX2 analytically  !
 --------------------------------------------------------------------------------
 Trust Radius=3.00D-01 FncErr=1.00D-07 GrdErr=1.00D-07
 Number of steps in this run=      2 maximum allowed number of steps=      2.
 GradGradGradGradGradGradGradGradGradGradGradGradGradGradGradGradGradGrad

 Leave Link  103 at Tue Jun  9 16:08:57 2015, MaxMem=   536870912 cpu:         0.0
 (Enter /usr/local/research/Gaussian09/g09-revD.01/g09/l202.exe)
                          Input orientation:                          
 ---------------------------------------------------------------------
 Center     Atomic      Atomic             Coordinates (Angstroms)
 Number     Number       Type             X           Y           Z
 ---------------------------------------------------------------------
      1          6           0        1.083699    0.332984    1.174832
      2          1           0        1.021751    0.656611    2.214611
      3          6           0        1.326130   -0.920293    0.731785
      4          1           0        1.497835   -1.801471    1.352723
      5          6           0        1.326130   -0.920293   -0.731785
      6          1           0        1.497835   -1.801471   -1.352723
      7          6           0        1.083699    0.332984   -1.174832
      8          1           0        1.021751    0.656611   -2.214611
      9          6           0       -2.595803   -0.121287    0.665846
     10          1           0       -1.722088   -0.458996    1.231698
     11          1           0       -3.463430    0.216388    1.241649
     12          6           0       -2.595803   -0.121287   -0.665846
     13          1           0       -3.463430    0.216388   -1.241649
     14          1           0       -1.722088   -0.458996   -1.231698
     15          6           0        0.900231    1.238786    0.000000
     16          1           0       -0.104645    1.702105    0.000000
     17          1           0        1.621148    2.077586    0.000000
 ---------------------------------------------------------------------
                    Distance matrix (angstroms):
                    1          2          3          4          5
     1  C    0.000000
     2  H    1.090739   0.000000
     3  C    1.351209   2.185874   0.000000
     4  H    2.181526   2.647957   1.091569   0.000000
     5  C    2.294485   3.355670   1.463570   2.269611   0.000000
     6  H    3.334058   4.358290   2.269611   2.705446   1.091569
     7  C    2.349664   3.405421   2.294485   3.334058   1.351209
     8  H    3.405421   4.429221   3.355670   4.358290   2.185874
     9  C    3.742214   4.011296   4.003039   4.478023   4.239498
    10  H    2.915975   3.120793   3.123195   3.490672   3.655092
    11  H    4.549114   4.610564   4.948928   5.357074   5.303430
    12  C    4.139227   4.689228   4.239498   4.863693   4.003039
    13  H    5.150665   5.679469   5.303430   5.951190   4.948928
    14  H    3.780352   4.544258   3.655092   4.341587   3.123195
    15  C    1.494780   2.293075   2.319164   3.380851   2.319164
    16  H    2.160297   2.695612   3.075646   4.083240   3.075646
    17  H    2.170880   2.698694   3.099972   4.110007   3.099972
                    6          7          8          9         10
     6  H    0.000000
     7  C    2.181526   0.000000
     8  H    2.647957   1.090739   0.000000
     9  C    4.863693   4.139227   4.689228   0.000000
    10  H    4.341587   3.780352   4.544258   1.094355   0.000000
    11  H    5.951190   5.150665   5.679469   1.094691   1.867756
    12  C    4.478023   3.742214   4.011296   1.331692   2.116152
    13  H    5.357074   4.549114   4.610564   2.122578   3.099332
    14  H    3.490672   2.915975   3.120793   2.116152   2.463397
    15  C    3.380851   1.494780   2.293075   3.809909   3.357990
    16  H    4.083240   2.160297   2.695612   3.158161   2.967079
    17  H    4.110007   2.170880   2.698694   4.802195   4.373620
                   11         12         13         14         15
    11  H    0.000000
    12  C    2.122578   0.000000
    13  H    2.483297   1.094691   0.000000
    14  H    3.099332   1.094355   1.867756   0.000000
    15  C    4.650647   3.809909   4.650647   3.357990   0.000000
    16  H    3.876916   3.158161   3.876916   2.967079   1.106544
    17  H    5.555059   4.802195   5.555059   4.373620   1.106032
                   16         17
    16  H    0.000000
    17  H    1.766167   0.000000
 Stoichiometry    C7H10
 Framework group  CS[SG(CH2),X(C6H8)]
 Deg. of freedom    24
 Full point group                 CS      NOp   2
 RotChk:  IX=0 Diff= 7.50D-16
 Largest Abelian subgroup         CS      NOp   2
 Largest concise Abelian subgroup CS      NOp   2
                         Standard orientation:                         
 ---------------------------------------------------------------------
 Center     Atomic      Atomic             Coordinates (Angstroms)
 Number     Number       Type             X           Y           Z
 ---------------------------------------------------------------------
      1          6           0       -0.197422    1.128812    1.174832
      2          1           0       -0.526201    1.106984    2.214611
      3          6           0        1.076116    1.215852    0.731785
      4          1           0        1.971694    1.278293    1.352723
      5          6           0        1.076116    1.215852   -0.731785
      6          1           0        1.971694    1.278293   -1.352723
      7          6           0       -0.197422    1.128812   -1.174832
      8          1           0       -0.526201    1.106984   -2.214611
      9          6           0       -0.197422   -2.578627    0.665846
     10          1           0        0.244798   -1.752875    1.231698
     11          1           0       -0.638863   -3.398340    1.241649
     12          6           0       -0.197422   -2.578627   -0.665846
     13          1           0       -0.638863   -3.398340   -1.241649
     14          1           0        0.244798   -1.752875   -1.231698
     15          6           0       -1.118879    1.057713    0.000000
     16          1           0       -1.701834    0.117180    0.000000
     17          1           0       -1.863025    1.875976    0.000000
 ---------------------------------------------------------------------
 Rotational constants (GHZ):      3.7913352      1.4945324      1.4133752
 Leave Link  202 at Tue Jun  9 16:08:57 2015, MaxMem=   536870912 cpu:         0.0
 (Enter /usr/local/research/Gaussian09/g09-revD.01/g09/l301.exe)
 Standard basis: def2SVP (5D, 7F)
 Ernie: Thresh=  0.10000D-02 Tol=  0.10000D-05 Strict=F.
 There are    84 symmetry adapted cartesian basis functions of A'  symmetry.
 There are    71 symmetry adapted cartesian basis functions of A"  symmetry.
 There are    80 symmetry adapted basis functions of A'  symmetry.
 There are    68 symmetry adapted basis functions of A"  symmetry.
   148 basis functions,   245 primitive gaussians,   155 cartesian basis functions
    26 alpha electrons       26 beta electrons
       nuclear repulsion energy       265.7728800036 Hartrees.
 IExCor= 1009 DFT=T Ex+Corr=PBE1PBE ExCW=0 ScaHFX=  0.250000
 ScaDFX=  0.750000  0.750000  1.000000  1.000000 ScalE2=  1.000000  1.000000
 IRadAn=      5 IRanWt=     -1 IRanGd=            0 ICorTp=0 IEmpDi=141
 NAtoms=   17 NActive=   17 NUniq=   10 SFac= 2.89D+00 NAtFMM=   60 NAOKFM=F Big=F
 Integral buffers will be    131072 words long.
 Raffenetti 2 integral format.
 Two-electron integral symmetry is turned on.
 R6Disp:  Grimme-D3(BJ) Dispersion energy=       -0.0123639247 Hartrees.
 Nuclear repulsion after empirical dispersion term =      265.7605160789 Hartrees.
 Leave Link  301 at Tue Jun  9 16:08:58 2015, MaxMem=   536870912 cpu:         0.2
 (Enter /usr/local/research/Gaussian09/g09-revD.01/g09/l302.exe)
 NPDir=0 NMtPBC=     1 NCelOv=     1 NCel=       1 NClECP=     1 NCelD=      1
         NCelK=      1 NCelE2=     1 NClLst=     1 CellRange=     0.0.
 One-electron integrals computed using PRISM.
 One-electron integral symmetry used in STVInt
   2 Symmetry operations used in ECPInt.
 ECPInt:  NShTT=    2628 NPrTT=    9166 LenC2=    2613 LenP2D=    7443.
 LDataN:  DoStor=T MaxTD1= 4 Len=   56
 NBasis=   148 RedAO= T EigKep=  6.64D-04  NBF=    80    68
 NBsUse=   148 1.00D-06 EigRej= -1.00D+00 NBFU=    80    68
 Precomputing XC quadrature grid using
 IXCGrd= 4 IRadAn=           5 IRanWt=          -1 IRanGd=           0 AccXCQ= 0.00D+00.
 Generated NRdTot=       0 NPtTot=           0 NUsed=           0 NTot=          32
 NSgBfM=   155   155   155   155   155 MxSgAt=    17 MxSgA2=    17.
 Leave Link  302 at Tue Jun  9 16:08:59 2015, MaxMem=   536870912 cpu:         2.3
 (Enter /usr/local/research/Gaussian09/g09-revD.01/g09/l303.exe)
 DipDrv:  MaxL=1.
 Leave Link  303 at Tue Jun  9 16:08:59 2015, MaxMem=   536870912 cpu:         0.3
 (Enter /usr/local/research/Gaussian09/g09-revD.01/g09/l401.exe)
 Initial guess from the checkpoint file:  "02-dielsalder-r.chk"
 B after Tr=     0.000000    0.000000    0.000000
         Rot=    1.000000    0.000000    0.000000    0.000000 Ang=   0.00 deg.
 Guess basis will be translated and rotated to current coordinates.
 JPrj=2 DoOrth=T DoCkMO=T.
 Initial guess orbital symmetries:
       Occupied  (A') (A') (A") (A') (A") (A') (A") (A') (A') (A")
                 (A') (A") (A') (A") (A') (A') (A') (A') (A") (A')
                 (A") (A') (A") (A') (A') (A")
       Virtual   (A') (A") (A') (A") (A') (A') (A") (A') (A') (A")
                 (A") (A') (A") (A") (A') (A") (A') (A") (A') (A')
                 (A") (A') (A') (A") (A') (A') (A") (A') (A') (A")
                 (A") (A') (A") (A') (A') (A") (A') (A") (A') (A')
                 (A") (A") (A") (A') (A') (A") (A') (A") (A') (A')
                 (A") (A") (A') (A") (A") (A') (A") (A') (A') (A")
                 (A") (A') (A') (A") (A') (A') (A") (A") (A') (A')
                 (A') (A") (A") (A') (A") (A") (A") (A') (A') (A')
                 (A') (A') (A') (A") (A') (A') (A") (A') (A") (A")
                 (A') (A') (A") (A") (A') (A') (A") (A") (A") (A')
                 (A") (A') (A') (A') (A") (A") (A") (A") (A') (A')
                 (A") (A") (A') (A") (A') (A') (A') (A") (A") (A')
                 (A") (A")
 The electronic state of the initial guess is 1-A'.
 Leave Link  401 at Tue Jun  9 16:08:59 2015, MaxMem=   536870912 cpu:         0.6
 (Enter /usr/local/research/Gaussian09/g09-revD.01/g09/l502.exe)
 Closed shell SCF:
 Using DIIS extrapolation, IDIIS=  1040.
 Integral symmetry usage will be decided dynamically.
 Keep R1 ints in memory in symmetry-blocked form, NReq=91299597.
 IVT=       80355 IEndB=       80355 NGot=   536870912 MDV=   506363315
 LenX=   506363315 LenY=   506338849
 Requested convergence on RMS density matrix=1.00D-10 within  64 cycles.
 Requested convergence on MAX density matrix=1.00D-08.
 Requested convergence on             energy=1.00D-08.
 No special actions if energy rises.
 FoFCou: FMM=F IPFlag=           0 FMFlag=           0 FMFlg1=           0
         NFxFlg=           0 DoJE=F BraDBF=F KetDBF=F FulRan=T
         wScrn=  0.000000 ICntrl=     600 IOpCl=  0 I1Cent=           0 NGrid=           0
         NMat0=    1 NMatS0=  11026 NMatT0=    0 NMatD0=    1 NMtDS0=    0 NMtDT0=    0
 Petite list used in FoFCou.

 Cycle   1  Pass 1  IDiag  1:
 E= -272.167556895186    
 DIIS: error= 3.53D-11 at cycle   1 NSaved=   1.
 NSaved= 1 IEnMin= 1 EnMin= -272.167556895186     IErMin= 1 ErrMin= 3.53D-11
 ErrMax= 3.53D-11  0.00D+00 EMaxC= 1.00D-01 BMatC= 1.77D-19 BMatP= 1.77D-19
 IDIUse=1 WtCom= 1.00D+00 WtEn= 0.00D+00
 Coeff-Com:  0.100D+01
 Coeff:      0.100D+01
 Gap=     0.215 Goal=   None    Shift=    0.000
 Skip diagonalization as Alpha Fock matrix is already diagonal.
 RMSDP=0.00D+00 MaxDP=0.00D+00              OVMax= 0.00D+00

 SCF Done:  E(RPBE1PBE) =  -272.167556895     A.U. after    1 cycles
            NFock=  1  Conv=0.00D+00     -V/T= 2.0115
 KE= 2.690608549897D+02 PE=-1.160561329477D+03 EE= 3.535724015135D+02
 Leave Link  502 at Tue Jun  9 16:09:03 2015, MaxMem=   536870912 cpu:        13.0
 (Enter /usr/local/research/Gaussian09/g09-revD.01/g09/l508.exe)
 QCSCF skips out because SCF is already converged.
 Leave Link  508 at Tue Jun  9 16:09:03 2015, MaxMem=   536870912 cpu:         0.0
 (Enter /usr/local/research/Gaussian09/g09-revD.01/g09/l801.exe)
 DoSCS=F DFT=T ScalE2(SS,OS)=  1.000000  1.000000
 Range of M.O.s used for correlation:     1   148
 NBasis=   148 NAE=    26 NBE=    26 NFC=     0 NFV=     0
 NROrb=    148 NOA=    26 NOB=    26 NVA=   122 NVB=   122

 **** Warning!!: The largest alpha MO coefficient is  0.12662464D+02

 Leave Link  801 at Tue Jun  9 16:09:03 2015, MaxMem=   536870912 cpu:         0.0
 (Enter /usr/local/research/Gaussian09/g09-revD.01/g09/l1101.exe)
 Using compressed storage, NAtomX=    17.
 Will process     18 centers per pass.
   2 Symmetry operations used in ECPInt.
 ECPInt:  NShTT=    2628 NPrTT=    9166 LenC2=    2613 LenP2D=    7443.
 LDataN:  DoStor=T MaxTD1= 5 Len=  102
 R6Disp: Adding Grimme-D3(BJ) dispersion energy 1st derivatives to the gradient.
 Leave Link 1101 at Tue Jun  9 16:09:04 2015, MaxMem=   536870912 cpu:         1.3
 (Enter /usr/local/research/Gaussian09/g09-revD.01/g09/l1102.exe)
 Symmetrizing basis deriv contribution to polar:
 IMax=3 JMax=2 DiffMx= 0.00D+00
 Leave Link 1102 at Tue Jun  9 16:09:04 2015, MaxMem=   536870912 cpu:         0.2
 (Enter /usr/local/research/Gaussian09/g09-revD.01/g09/l1110.exe)
 Forming Gx(P) for the SCF density, NAtomX=    17.
 Integral derivatives from FoFJK, PRISM(SPDF).
 Do as many integral derivatives as possible in FoFJK.
 G2DrvN: MDV=     536870672.
 G2DrvN: will do    18 centers at a time, making    1 passes.
 Calling FoFCou, ICntrl=  3107 FMM=F I1Cent=   0 AccDes= 0.00D+00.
 FoFJK:  IHMeth= 1 ICntrl=    3107 DoSepK=F KAlg= 0 I1Cent=   0 FoldK=F
 IRaf=         0 NMat=   1 IRICut=       1 DoRegI=T DoRafI=F ISym2E= 1.
 FoFCou: FMM=F IPFlag=           0 FMFlag=      100000 FMFlg1=           0
         NFxFlg=           0 DoJE=F BraDBF=F KetDBF=F FulRan=T
         wScrn=  0.000000 ICntrl=    3107 IOpCl=  0 I1Cent=           0 NGrid=           0
         NMat0=    1 NMatS0=      1 NMatT0=    0 NMatD0=    1 NMtDS0=    0 NMtDT0=    0
 Petite list used in FoFCou.
 End of G2Drv F.D. properties file   721 does not exist.
 End of G2Drv F.D. properties file   722 does not exist.
 End of G2Drv F.D. properties file   788 does not exist.
 Leave Link 1110 at Tue Jun  9 16:10:00 2015, MaxMem=   536870912 cpu:       223.9
 (Enter /usr/local/research/Gaussian09/g09-revD.01/g09/l1002.exe)
 Minotr:  Closed shell wavefunction.
          IDoAtm=11111111111111111
          Direct CPHF calculation.
          Differentiating once with respect to electric field.
                with respect to dipole field.
          Differentiating once with respect to nuclear coordinates.
          Using symmetry in CPHF.
          Requested convergence is 1.0D-08 RMS, and 1.0D-07 maximum.
          Secondary convergence is 1.0D-12 RMS, and 1.0D-12 maximum.
          NewPWx=T KeepS1=F KeepF1=F KeepIn=T MapXYZ=F SortEE=F KeepMc=T.
          MDV=     536870590 using IRadAn=       1.
 Generate precomputed XC quadrature information.
 Keep R1 ints in memory in symmetry-blocked form, NReq=91226301.
 FoFCou: FMM=F IPFlag=           0 FMFlag=           0 FMFlg1=           0
         NFxFlg=           0 DoJE=F BraDBF=F KetDBF=F FulRan=T
         wScrn=  0.000000 ICntrl=     600 IOpCl=  0 I1Cent=           0 NGrid=           0
         NMat0=    1 NMatS0=  11026 NMatT0=    0 NMatD0=    1 NMtDS0=    0 NMtDT0=    0
 Petite list used in FoFCou.
          Solving linear equations simultaneously, MaxMat=       0.
          There are    33 degrees of freedom in the 1st order CPHF.  IDoFFX=4 NUNeed=    33.
     33 vectors produced by pass  0 Test12= 9.61D-15 3.03D-09 XBig12= 7.82D+01 5.07D+00.
 AX will form    33 AO Fock derivatives at one time.
     33 vectors produced by pass  1 Test12= 9.61D-15 3.03D-09 XBig12= 1.83D+01 1.46D+00.
     33 vectors produced by pass  2 Test12= 9.61D-15 3.03D-09 XBig12= 4.78D-01 1.52D-01.
     33 vectors produced by pass  3 Test12= 9.61D-15 3.03D-09 XBig12= 2.96D-03 1.20D-02.
     33 vectors produced by pass  4 Test12= 9.61D-15 3.03D-09 XBig12= 1.78D-05 8.16D-04.
     32 vectors produced by pass  5 Test12= 9.61D-15 3.03D-09 XBig12= 4.28D-08 2.75D-05.
      6 vectors produced by pass  6 Test12= 9.61D-15 3.03D-09 XBig12= 5.38D-11 1.45D-06.
      3 vectors produced by pass  7 Test12= 9.61D-15 3.03D-09 XBig12= 6.07D-14 4.35D-08.
 InvSVY:  IOpt=1 It=  1 EMax= 7.11D-15
 Solved reduced A of dimension   206 with    33 vectors.
 FullF1:  Do perturbations    1 to    33.
 Isotropic polarizability for W=    0.000000       70.35 Bohr**3.
 End of Minotr F.D. properties file   721 does not exist.
 End of Minotr F.D. properties file   722 does not exist.
 End of Minotr F.D. properties file   788 does not exist.
 Leave Link 1002 at Tue Jun  9 16:11:04 2015, MaxMem=   536870912 cpu:       252.6
 (Enter /usr/local/research/Gaussian09/g09-revD.01/g09/l601.exe)
 Copying SCF densities to generalized density rwf, IOpCl= 0 IROHF=0.

 **********************************************************************

            Population analysis using the SCF density.

 **********************************************************************

 Orbital symmetries:
       Occupied  (A') (A') (A") (A') (A") (A') (A") (A') (A') (A")
                 (A') (A") (A') (A") (A') (A') (A') (A') (A") (A')
                 (A") (A') (A") (A') (A') (A")
       Virtual   (A') (A") (A') (A") (A') (A') (A") (A') (A') (A")
                 (A") (A') (A") (A") (A') (A") (A') (A") (A') (A')
                 (A") (A') (A') (A") (A') (A') (A") (A') (A') (A")
                 (A") (A') (A") (A') (A') (A") (A') (A") (A') (A')
                 (A") (A") (A") (A') (A') (A") (A') (A") (A') (A')
                 (A") (A") (A') (A") (A") (A') (A") (A') (A') (A")
                 (A") (A') (A') (A") (A') (A') (A") (A") (A') (A')
                 (A') (A") (A") (A') (A") (A") (A") (A') (A') (A')
                 (A') (A') (A') (A") (A') (A') (A") (A') (A") (A")
                 (A') (A') (A") (A") (A') (A') (A") (A") (A") (A')
                 (A") (A') (A') (A') (A") (A") (A") (A") (A') (A')
                 (A") (A") (A') (A") (A') (A') (A') (A") (A") (A')
                 (A") (A")
 The electronic state is 1-A'.
 Alpha  occ. eigenvalues --  -10.23866 -10.23263 -10.23249 -10.23172 -10.23171
 Alpha  occ. eigenvalues --  -10.22946 -10.22866  -0.87864  -0.76723  -0.71833
 Alpha  occ. eigenvalues --   -0.71809  -0.58027  -0.56162  -0.54119  -0.52842
 Alpha  occ. eigenvalues --   -0.47557  -0.44770  -0.42366  -0.40871  -0.38792
 Alpha  occ. eigenvalues --   -0.37362  -0.37230  -0.35701  -0.31447  -0.28056
 Alpha  occ. eigenvalues --   -0.23261
 Alpha virt. eigenvalues --   -0.01741   0.01794   0.08013   0.08169   0.10486
 Alpha virt. eigenvalues --    0.11695   0.11938   0.12777   0.14418   0.14637
 Alpha virt. eigenvalues --    0.14942   0.15624   0.20723   0.21718   0.23222
 Alpha virt. eigenvalues --    0.33262   0.33307   0.34717   0.39576   0.40872
 Alpha virt. eigenvalues --    0.43763   0.44400   0.46228   0.47513   0.48048
 Alpha virt. eigenvalues --    0.49117   0.49460   0.51337   0.55390   0.56693
 Alpha virt. eigenvalues --    0.57850   0.59445   0.61608   0.62398   0.64556
 Alpha virt. eigenvalues --    0.65024   0.66359   0.67423   0.67878   0.69090
 Alpha virt. eigenvalues --    0.70074   0.71326   0.72701   0.73077   0.74206
 Alpha virt. eigenvalues --    0.76814   0.77545   0.78928   0.79357   0.82260
 Alpha virt. eigenvalues --    0.87019   0.88385   0.98590   1.02460   1.10200
 Alpha virt. eigenvalues --    1.14099   1.17085   1.20390   1.21464   1.23590
 Alpha virt. eigenvalues --    1.28885   1.29068   1.30604   1.31160   1.53848
 Alpha virt. eigenvalues --    1.55463   1.56690   1.59635   1.62497   1.65248
 Alpha virt. eigenvalues --    1.65632   1.69234   1.71833   1.72545   1.73099
 Alpha virt. eigenvalues --    1.76120   1.78512   1.79122   1.79914   1.80243
 Alpha virt. eigenvalues --    1.83139   1.85345   1.87915   1.88761   1.93515
 Alpha virt. eigenvalues --    1.95614   1.99804   2.01326   2.01899   2.06905
 Alpha virt. eigenvalues --    2.08134   2.10694   2.17310   2.18509   2.19590
 Alpha virt. eigenvalues --    2.25133   2.26636   2.26712   2.29549   2.39100
 Alpha virt. eigenvalues --    2.40781   2.40830   2.43185   2.48422   2.49678
 Alpha virt. eigenvalues --    2.56424   2.60854   2.64799   2.71062   2.72450
 Alpha virt. eigenvalues --    2.73943   2.78986   2.81559   2.83354   2.85105
 Alpha virt. eigenvalues --    2.85821   2.99040   3.09313   3.14077   3.25405
 Alpha virt. eigenvalues --    3.34297   3.47860
          Condensed to atoms (all electrons):
               1          2          3          4          5          6
     1  C    4.990755   0.427108   0.551880  -0.064924  -0.013980   0.007959
     2  H    0.427108   0.631874  -0.048013  -0.007382   0.010339  -0.000290
     3  C    0.551880  -0.048013   4.916183   0.439482   0.310647  -0.056705
     4  H   -0.064924  -0.007382   0.439482   0.649080  -0.056705  -0.004175
     5  C   -0.013980   0.010339   0.310647  -0.056705   4.916183   0.439482
     6  H    0.007959  -0.000290  -0.056705  -0.004175   0.439482   0.649080
     7  C   -0.132251   0.006796  -0.013980   0.007959   0.551880  -0.064924
     8  H    0.006796  -0.000223   0.010339  -0.000290  -0.048013  -0.007382
     9  C   -0.002567  -0.000178  -0.002358  -0.000001   0.000218  -0.000016
    10  H    0.008575   0.000493   0.003627   0.000085  -0.000016   0.000023
    11  H    0.000079  -0.000002   0.000061   0.000000  -0.000012   0.000000
    12  C    0.001211   0.000036   0.000218  -0.000016  -0.002358  -0.000001
    13  H   -0.000002   0.000001  -0.000012   0.000000   0.000061   0.000000
    14  H   -0.001545  -0.000029  -0.000016   0.000023   0.003627   0.000085
    15  C    0.353835  -0.050396  -0.085687   0.014029  -0.085687   0.014029
    16  H   -0.004506  -0.000680  -0.000429  -0.000372  -0.000429  -0.000372
    17  H   -0.012822  -0.000904   0.001766  -0.000358   0.001766  -0.000358
               7          8          9         10         11         12
     1  C   -0.132251   0.006796  -0.002567   0.008575   0.000079   0.001211
     2  H    0.006796  -0.000223  -0.000178   0.000493  -0.000002   0.000036
     3  C   -0.013980   0.010339  -0.002358   0.003627   0.000061   0.000218
     4  H    0.007959  -0.000290  -0.000001   0.000085   0.000000  -0.000016
     5  C    0.551880  -0.048013   0.000218  -0.000016  -0.000012  -0.002358
     6  H   -0.064924  -0.007382  -0.000016   0.000023   0.000000  -0.000001
     7  C    4.990755   0.427108   0.001211  -0.001545  -0.000002  -0.002567
     8  H    0.427108   0.631874   0.000036  -0.000029   0.000001  -0.000178
     9  C    0.001211   0.000036   4.679685   0.394107   0.395080   0.706031
    10  H   -0.001545  -0.000029   0.394107   0.602564  -0.044212  -0.021484
    11  H   -0.000002   0.000001   0.395080  -0.044212   0.631951  -0.027527
    12  C   -0.002567  -0.000178   0.706031  -0.021484  -0.027527   4.679685
    13  H    0.000079  -0.000002  -0.027527   0.008190  -0.016584   0.395080
    14  H    0.008575   0.000493  -0.021484  -0.016453   0.008190   0.394107
    15  C    0.353835  -0.050396  -0.003385  -0.001236   0.000007  -0.003385
    16  H   -0.004506  -0.000680   0.006075  -0.001149  -0.000050   0.006075
    17  H   -0.012822  -0.000904   0.000041   0.000088   0.000001   0.000041
              13         14         15         16         17
     1  C   -0.000002  -0.001545   0.353835  -0.004506  -0.012822
     2  H    0.000001  -0.000029  -0.050396  -0.000680  -0.000904
     3  C   -0.000012  -0.000016  -0.085687  -0.000429   0.001766
     4  H    0.000000   0.000023   0.014029  -0.000372  -0.000358
     5  C    0.000061   0.003627  -0.085687  -0.000429   0.001766
     6  H    0.000000   0.000085   0.014029  -0.000372  -0.000358
     7  C    0.000079   0.008575   0.353835  -0.004506  -0.012822
     8  H   -0.000002   0.000493  -0.050396  -0.000680  -0.000904
     9  C   -0.027527  -0.021484  -0.003385   0.006075   0.000041
    10  H    0.008190  -0.016453  -0.001236  -0.001149   0.000088
    11  H   -0.016584   0.008190   0.000007  -0.000050   0.000001
    12  C    0.395080   0.394107  -0.003385   0.006075   0.000041
    13  H    0.631951  -0.044212   0.000007  -0.000050   0.000001
    14  H   -0.044212   0.602564  -0.001236  -0.001149   0.000088
    15  C    0.000007  -0.001236   4.828101   0.337421   0.354252
    16  H   -0.000050  -0.001149   0.337421   0.600635  -0.015869
    17  H    0.000001   0.000088   0.354252  -0.015869   0.609586
 Mulliken charges:
               1
     1  C   -0.115602
     2  H    0.031449
     3  C   -0.027003
     4  H    0.023563
     5  C   -0.027003
     6  H    0.023563
     7  C   -0.115602
     8  H    0.031449
     9  C   -0.124967
    10  H    0.068374
    11  H    0.053020
    12  C   -0.124967
    13  H    0.053020
    14  H    0.068374
    15  C    0.025891
    16  H    0.080036
    17  H    0.076408
 Sum of Mulliken charges =   0.00000
 Mulliken charges with hydrogens summed into heavy atoms:
               1
     1  C   -0.084154
     3  C   -0.003440
     5  C   -0.003440
     7  C   -0.084154
     9  C   -0.003574
    12  C   -0.003574
    15  C    0.182336
 APT charges:
               1
     1  C   -0.087962
     2  H    0.059586
     3  C   -0.044117
     4  H    0.053644
     5  C   -0.044117
     6  H    0.053644
     7  C   -0.087962
     8  H    0.059586
     9  C   -0.089664
    10  H    0.055679
    11  H    0.034254
    12  C   -0.089664
    13  H    0.034254
    14  H    0.055679
    15  C   -0.080555
    16  H    0.068539
    17  H    0.049177
 Sum of APT charges =   0.00000
 APT charges with hydrogens summed into heavy atoms:
               1
     1  C   -0.028376
     3  C    0.009527
     5  C    0.009527
     7  C   -0.028376
     9  C    0.000268
    12  C    0.000268
    15  C    0.037161
 Atomic Valencies and Mayer Atomic Bond Orders:
               1          2          3          4          5          6
     1  C    3.923619   0.989970   1.752203  -0.019944   0.003598   0.007142
     2  H    0.989970   0.990169  -0.012916   0.000883   0.011158   0.002539
     3  C    1.752203  -0.012916   3.857725   0.997109   1.092128  -0.016267
     4  H   -0.019944   0.000883   0.997109   0.986145  -0.016267   0.000097
     5  C    0.003598   0.011158   1.092128  -0.016267   3.857725   0.997109
     6  H    0.007142   0.002539  -0.016267   0.000097   0.997109   0.986145
     7  C    0.074592   0.009523   0.003598   0.007142   1.752203  -0.019944
     8  H    0.009523   0.002306   0.011158   0.002539  -0.012916   0.000883
     9  C    0.001698   0.000083  -0.000111   0.000028   0.000422   0.000018
    10  H    0.012707   0.000771   0.008233   0.000143  -0.000087  -0.000007
    11  H    0.000283  -0.000009   0.000148   0.000004  -0.000039   0.000003
    12  C    0.001201   0.000003   0.000422   0.000018  -0.000111   0.000028
    13  H   -0.000027   0.000013  -0.000039   0.000003   0.000148   0.000004
    14  H    0.000813   0.000048  -0.000087  -0.000007   0.008233   0.000143
    15  C    1.056834  -0.014211  -0.014710   0.011498  -0.014710   0.011498
    16  H    0.018638   0.000025   0.018826   0.001419   0.018826   0.001419
    17  H    0.014389  -0.000014   0.018030   0.001479   0.018030   0.001479
               7          8          9         10         11         12
     1  C    0.074592   0.009523   0.001698   0.012707   0.000283   0.001201
     2  H    0.009523   0.002306   0.000083   0.000771  -0.000009   0.000003
     3  C    0.003598   0.011158  -0.000111   0.008233   0.000148   0.000422
     4  H    0.007142   0.002539   0.000028   0.000143   0.000004   0.000018
     5  C    1.752203  -0.012916   0.000422  -0.000087  -0.000039  -0.000111
     6  H   -0.019944   0.000883   0.000018  -0.000007   0.000003   0.000028
     7  C    3.923619   0.989970   0.001201   0.000813  -0.000027   0.001698
     8  H    0.989970   0.990169   0.000003   0.000048   0.000013   0.000083
     9  C    0.001201   0.000003   3.996763   0.954604   0.962955   2.056615
    10  H    0.000813   0.000048   0.954604   0.988467  -0.010335   0.006314
    11  H   -0.000027   0.000013   0.962955  -0.010335   0.973540   0.004217
    12  C    0.001698   0.000083   2.056615   0.006314   0.004217   3.996763
    13  H    0.000283  -0.000009   0.004217   0.016052   0.000287   0.962955
    14  H    0.012707   0.000771   0.006314   0.000330   0.016052   0.954604
    15  C    1.056834  -0.014211  -0.002507  -0.000944  -0.000040  -0.002507
    16  H    0.018638   0.000025   0.010912  -0.000208   0.000029   0.010912
    17  H    0.014389  -0.000014   0.000312   0.000031   0.000001   0.000312
              13         14         15         16         17
     1  C   -0.000027   0.000813   1.056834   0.018638   0.014389
     2  H    0.000013   0.000048  -0.014211   0.000025  -0.000014
     3  C   -0.000039  -0.000087  -0.014710   0.018826   0.018030
     4  H    0.000003  -0.000007   0.011498   0.001419   0.001479
     5  C    0.000148   0.008233  -0.014710   0.018826   0.018030
     6  H    0.000004   0.000143   0.011498   0.001419   0.001479
     7  C    0.000283   0.012707   1.056834   0.018638   0.014389
     8  H   -0.000009   0.000771  -0.014211   0.000025  -0.000014
     9  C    0.004217   0.006314  -0.002507   0.010912   0.000312
    10  H    0.016052   0.000330  -0.000944  -0.000208   0.000031
    11  H    0.000287   0.016052  -0.000040   0.000029   0.000001
    12  C    0.962955   0.954604  -0.002507   0.010912   0.000312
    13  H    0.973540  -0.010335  -0.000040   0.000029   0.000001
    14  H   -0.010335   0.988467  -0.000944  -0.000208   0.000031
    15  C   -0.000040  -0.000944   3.875310   0.894226   0.909247
    16  H    0.000029  -0.000208   0.894226   0.994226   0.000718
    17  H    0.000001   0.000031   0.909247   0.000718   0.978422
 Lowdin Atomic Charges:
               1
     1  C   -0.041855
     2  H    0.027526
     3  C   -0.047194
     4  H    0.028601
     5  C   -0.047194
     6  H    0.028601
     7  C   -0.041855
     8  H    0.027526
     9  C   -0.061780
    10  H    0.030080
    11  H    0.027455
    12  C   -0.061780
    13  H    0.027455
    14  H    0.030080
    15  C   -0.046335
    16  H    0.061587
    17  H    0.059080
 Sum of Lowdin charges  =   0.00000
 Lowdin atomic charges with hydrogens summed into heavy atoms:
               1
     1  C   -0.014329
     2  H    0.000000
     3  C   -0.018593
     4  H    0.000000
     5  C   -0.018593
     6  H    0.000000
     7  C   -0.014329
     8  H    0.000000
     9  C   -0.004245
    10  H    0.000000
    11  H    0.000000
    12  C   -0.004245
    13  H    0.000000
    14  H    0.000000
    15  C    0.074333
    16  H    0.000000
    17  H    0.000000
 Sum of Lowdin charges  =   0.00000
 Dipole moment from Lowdin charges (Debye):
    X=    -0.7696    Y=     0.0980    Z=     0.0000  Tot=     0.7758
 Electronic spatial extent (au):  <R**2>=            966.5726
 Charge=              0.0000 electrons
 Dipole moment (field-independent basis, Debye):
    X=             -0.5259    Y=              0.1283    Z=              0.0000  Tot=              0.5413
 Quadrupole moment (field-independent basis, Debye-Ang):
   XX=            -41.6357   YY=            -46.0499   ZZ=            -40.8882
   XY=              0.8255   XZ=              0.0000   YZ=              0.0000
 Traceless Quadrupole moment (field-independent basis, Debye-Ang):
   XX=              1.2223   YY=             -3.1920   ZZ=              1.9697
   XY=              0.8255   XZ=              0.0000   YZ=              0.0000
 Octapole moment (field-independent basis, Debye-Ang**2):
  XXX=              2.7662  YYY=            -11.1731  ZZZ=              0.0000  XYY=             -8.6298
  XXY=              6.8310  XXZ=              0.0000  XZZ=             -0.3896  YZZ=             -0.9369
  YYZ=              0.0000  XYZ=              0.0000
 Hexadecapole moment (field-independent basis, Debye-Ang**3):
 XXXX=           -217.6451 YYYY=           -849.2274 ZZZZ=           -260.4512 XXXY=            -36.9199
 XXXZ=              0.0000 YYYX=            -22.3501 YYYZ=              0.0000 ZZZX=              0.0000
 ZZZY=              0.0000 XXYY=           -177.7460 XXZZ=            -79.3869 YYZZ=           -180.0918
 XXYZ=              0.0000 YYXZ=              0.0000 ZZXY=            -10.3195
 N-N= 2.657605160789D+02 E-N=-1.160561329477D+03  KE= 2.690608549897D+02
 Symmetry A'   KE= 1.561150056227D+02
 Symmetry A"   KE= 1.129458493669D+02
  Exact polarizability:  72.325   5.408  57.091   0.000   0.000  81.645
 Approx polarizability: 114.141   7.242  71.137   0.000   0.000 125.324
 No NMR shielding tensors so no spin-rotation constants.
 Leave Link  601 at Tue Jun  9 16:11:04 2015, MaxMem=   536870912 cpu:         1.1
 (Enter /usr/local/research/Gaussian09/g09-revD.01/g09/l701.exe)
 Compute integral second derivatives.
 ... and contract with generalized density number  0.
 R6Disp: Adding Grimme-D3(BJ) dispersion energy 2nd derivatives to the Hessian.
 Entering OneElI...
 Calculate overlap and kinetic energy integrals
    NBasis = 155  MinDer = 2  MaxDer = 2
 Requested accuracy = 0.1000D-12
 PrsmSu:  NPrtUS=   4 ThrOK=T IAlg=1 NPAlg=1 LenDen=           0.
 Prism:   IPart=     0 DynPar=F LinDyn=F Incr=           6.
 PRISM was handed   134114015 working-precision words and  2618 shell-pairs
 PRISM was handed   134114015 working-precision words and  2618 shell-pairs
 PRISM was handed   134114015 working-precision words and  2618 shell-pairs
 PRISM was handed   134114015 working-precision words and  2618 shell-pairs
 IPart=  3 NShTot=         641 NBatch=          49 AvBLen=        13.1
 IPart=  2 NShTot=         648 NBatch=          51 AvBLen=        12.7
 IPart=  1 NShTot=         661 NBatch=          53 AvBLen=        12.5
 IPart=  0 NShTot=         668 NBatch=          53 AvBLen=        12.6
 PrSmSu:  NxtVal=             25.
 Entering OneElI...
 Calculate potential energy integrals
    NBasis = 155  MinDer = 2  MaxDer = 2
 Requested accuracy = 0.1000D-12
 PrsmSu:  NPrtUS=   4 ThrOK=T IAlg=1 NPAlg=1 LenDen=           0.
 Prism:   IPart=     0 DynPar=F LinDyn=F Incr=         105.
 PRISM was handed   134130993 working-precision words and  2489 shell-pairs
 PRISM was handed   134130993 working-precision words and  2489 shell-pairs
 PRISM was handed   134130993 working-precision words and  2489 shell-pairs
 PRISM was handed   134130993 working-precision words and  2489 shell-pairs
 IPart=  3 NShTot=       10387 NBatch=         611 AvBLen=        17.0
 IPart=  2 NShTot=       10506 NBatch=         618 AvBLen=        17.0
 IPart=  1 NShTot=       10659 NBatch=         627 AvBLen=        17.0
 IPart=  0 NShTot=       10761 NBatch=         633 AvBLen=        17.0
 PrSmSu:  NxtVal=            421.
   2 Symmetry operations used in ECPInt.
 ECPInt:  NShTT=    2628 NPrTT=    9166 LenC2=    2613 LenP2D=    7443.
 LDataN:  DoStor=F MaxTD1= 6 Len=  172
 LDataN:  DoStor=T MaxTD1= 6 Len=  172
 ECPSu:  NPrtUS=   4 ThrOK=T
 Polarizability after L701:
                1             2             3 
      1  0.723251D+02
      2  0.540796D+01  0.570910D+02
      3  0.000000D+00  0.000000D+00  0.816450D+02
 Dipole Derivatives after L701:
                 1             2             3             4             5 
      1   0.101900D+00  0.247575D-01  0.325967D-01  0.706222D-01 -0.366065D-02
      2  -0.131880D-01 -0.255359D+00  0.254850D-01 -0.521811D-02  0.149181D+00
      3   0.386354D-01 -0.113846D-01 -0.110427D+00  0.217561D-01  0.128879D-01
                 6             7             8             9            10 
      1   0.298070D-01 -0.596439D-01  0.253719D-02  0.143255D+00 -0.117938D-01
      2   0.331737D-02  0.518670D-01 -0.162963D+00  0.136899D-01 -0.128597D-01
      3  -0.410442D-01  0.158231D+00 -0.160405D-02  0.902545D-01 -0.700951D-01
                11            12            13            14            15 
      1  -0.877548D-02 -0.745343D-01 -0.596439D-01  0.253716D-02 -0.143255D+00
      2   0.153344D+00 -0.721156D-02  0.518670D-01 -0.162963D+00 -0.136899D-01
      3  -0.713514D-03  0.193817D-01 -0.158231D+00  0.160405D-02  0.902545D-01
                16            17            18            19            20 
      1  -0.117938D-01 -0.877548D-02  0.745343D-01  0.101900D+00  0.247575D-01
      2  -0.128597D-01  0.153344D+00  0.721156D-02 -0.131880D-01 -0.255359D+00
      3   0.700951D-01  0.713513D-03  0.193817D-01 -0.386354D-01  0.113846D-01
                21            22            23            24            25 
      1  -0.325967D-01  0.706222D-01 -0.366065D-02 -0.298070D-01 -0.185726D+00
      2  -0.254850D-01 -0.521811D-02  0.149181D+00 -0.331737D-02  0.174431D+00
      3  -0.110427D+00 -0.217561D-01 -0.128879D-01 -0.410442D-01 -0.308334D-01
                26            27            28            29            30 
      1   0.131683D+00 -0.152905D-01  0.794603D-01 -0.623022D-01 -0.101035D-01
      2  -0.451288D-01 -0.434837D-01 -0.761274D-01  0.740357D-01 -0.437884D-01
      3  -0.416764D-01 -0.381383D-01 -0.125526D-01 -0.568032D-01  0.135404D-01
                31            32            33            34            35 
      1   0.956444D-01 -0.659979D-01  0.245761D-01 -0.185726D+00  0.131683D+00
      2  -0.907020D-01 -0.135470D-01  0.402275D-01  0.174431D+00 -0.451288D-01
      3   0.378147D-01  0.731954D-01  0.206648D-01  0.308334D-01  0.416764D-01
                36            37            38            39            40 
      1   0.152905D-01  0.956444D-01 -0.659979D-01 -0.245761D-01  0.794603D-01
      2   0.434837D-01 -0.907020D-01 -0.135470D-01 -0.402275D-01 -0.761274D-01
      3  -0.381383D-01 -0.378147D-01 -0.731954D-01  0.206648D-01  0.125526D-01
                41            42            43            44            45 
      1  -0.623022D-01  0.101035D-01 -0.294174D+00 -0.560948D-01  0.000000D+00
      2   0.740357D-01  0.437884D-01 -0.399697D-01  0.122998D+00  0.000000D+00
      3   0.568031D-01  0.135404D-01  0.000000D+00  0.000000D+00 -0.704902D-01
                46            47            48            49            50 
      1   0.772790D-01 -0.863256D-01  0.000000D+00  0.359678D-01  0.105938D+00
      2  -0.809011D-01  0.556100D-01  0.000000D+00  0.644655D-01  0.222653D-01
      3   0.000000D+00  0.000000D+00  0.727289D-01  0.000000D+00  0.000000D+00
                51 
      1   0.000000D+00
      2   0.000000D+00
      3   0.892975D-01
 Hessian after L701:
                1             2             3             4             5 
      1  0.934419D+01
      2 -0.923379D+00  0.212662D+02
      3  0.882166D+00 -0.126463D+00  0.126146D+02
      4 -0.395669D+01  0.244437D-01 -0.799129D+00  0.391972D+01
      5 -0.259177D-02 -0.415071D+01 -0.901073D-02  0.100776D-01  0.396518D+01
      6 -0.781503D+00 -0.965826D-01 -0.156436D+01  0.868591D+00 -0.904013D-02
      7 -0.138686D+01  0.660263D+00 -0.304918D+01  0.792118D-02  0.960717D-03
      8  0.812679D+00 -0.120029D+02 -0.232553D+00 -0.101048D-01  0.115311D+00
      9 -0.255150D+01 -0.143039D+00 -0.842243D+01  0.165725D+00  0.342166D-02
     10 -0.244475D+00 -0.229004D-01 -0.110420D+00 -0.541378D-01 -0.309722D-02
     11 -0.406294D-01  0.170516D+00 -0.934804D-02 -0.554297D-02  0.102357D-01
     12 -0.979399D-01 -0.550952D-02  0.182656D+00  0.279414D-01  0.160036D-02
     13 -0.685895D-01  0.142848D-01 -0.157459D+00  0.215458D-01  0.392713D-02
     14  0.533563D-02 -0.281727D-01 -0.231886D-01  0.659421D-02 -0.564862D-01
     15 -0.299954D+00 -0.403979D-01  0.153025D+00 -0.143931D+00 -0.753268D-02
     16  0.783923D-01  0.737733D-02 -0.160212D+00  0.364135D-02  0.343486D-03
     17  0.997834D-02 -0.534360D-01 -0.124282D-01  0.243131D-03 -0.475812D-03
     18 -0.151124D+00 -0.863443D-02  0.121447D+00 -0.986147D-03 -0.147139D-03
     19  0.227629D+00 -0.444494D-01 -0.216555D-01 -0.564516D-01 -0.815008D-03
     20 -0.444494D-01  0.756678D+00  0.239121D-01 -0.449064D-03 -0.501322D-01
     21  0.216555D-01 -0.239121D-01 -0.604671D+00 -0.266601D-01  0.458534D-03
     22 -0.564516D-01 -0.449064D-03  0.266601D-01 -0.738587D-03 -0.119996D-03
     23 -0.815008D-03 -0.501322D-01 -0.458534D-03 -0.119996D-03  0.992109D-03
     24  0.680924D-02  0.285459D-02  0.212854D+00 -0.482784D-02 -0.415203D-03
     25 -0.114288D+00  0.248660D-01  0.478201D-02 -0.132224D-01 -0.106358D-02
     26 -0.111082D-01  0.185455D+00  0.217683D-01 -0.135355D-01  0.214829D-01
     27  0.171129D-03  0.204743D-01 -0.117799D+00 -0.275478D-02  0.117427D-01
     28 -0.566359D-01 -0.475099D-01  0.380301D-02 -0.179747D-02 -0.730244D-02
     29 -0.235251D-01  0.757273D-01  0.287448D-02 -0.331952D-02  0.733755D-02
     30  0.741724D-02 -0.328535D-01 -0.602108D-01  0.587589D-03  0.206073D-02
     31 -0.110242D-01  0.107505D-01 -0.172642D-02 -0.243751D-02  0.142832D-02
     32  0.230855D-02  0.359644D-01 -0.509100D-02 -0.282705D-02  0.519594D-02
     33  0.138109D-03 -0.126233D-01 -0.748898D-02  0.118876D-02 -0.965662D-03
     34 -0.946430D-01  0.429562D-02  0.690329D-02 -0.848403D-02 -0.101659D-02
     35 -0.139258D-01  0.129970D+00  0.111325D+00 -0.810228D-02  0.905048D-02
     36 -0.616114D-02  0.142995D+00 -0.318003D-01 -0.853707D-02  0.180043D-01
     37 -0.773789D-02  0.721496D-02  0.232714D-02 -0.163466D-02  0.791717D-03
     38  0.520438D-03  0.201631D-01  0.102057D-01 -0.212143D-02  0.208830D-02
     39 -0.259923D-03  0.159637D-01 -0.352443D-04 -0.157452D-02  0.215130D-02
     40 -0.911471D-02 -0.121062D-01 -0.715818D-02  0.244847D-03 -0.136266D-02
     41  0.178990D-02 -0.178919D-01 -0.531281D-02  0.148176D-02 -0.175443D-02
     42 -0.607139D-02  0.189383D-01  0.474861D-03 -0.280991D-02  0.278160D-02
     43 -0.384069D+01  0.250842D+00  0.323749D+01  0.151028D+00  0.242489D-03
     44  0.174898D+00 -0.635442D+01  0.219190D+00  0.322607D-02  0.123837D+00
     45  0.289331D+01  0.271955D+00 -0.241631D+01 -0.723327D-01 -0.154435D-01
     46  0.100459D+00  0.746643D-01  0.837093D-01 -0.444748D-02  0.304150D-02
     47  0.144924D+00  0.158628D-01  0.687009D-01 -0.878312D-03 -0.471337D-03
     48  0.548876D-01 -0.517748D-03 -0.425987D-01 -0.366170D-04  0.235005D-02
     49  0.965279D-01 -0.282076D-01  0.590979D-01 -0.406401D-02 -0.344367D-02
     50 -0.920101D-01  0.109285D-02 -0.341231D-01  0.934472D-03 -0.681068D-03
     51  0.279617D-01  0.173516D-01 -0.173569D-01 -0.453789D-03 -0.201628D-02
                6             7             8             9            10 
      6  0.136242D+01
      7  0.135818D+00  0.103334D+02
      8  0.130384D-01 -0.102472D+01  0.222112D+02
      9 -0.393768D-01  0.549236D+00 -0.414076D-01  0.115054D+02
     10  0.142834D-01 -0.219027D+01  0.107490D+00  0.140476D+01  0.205164D+01
     11  0.146711D-02  0.168685D+00 -0.413325D+01  0.121131D+00 -0.181468D+00
     12  0.245109D-03  0.137934D+01  0.776451D-01 -0.322458D+01 -0.143628D+01
     13 -0.173459D+00 -0.677334D+01 -0.150354D-01 -0.240971D+00  0.505656D-01
     14 -0.142074D-01 -0.150354D-01 -0.676173D+01 -0.577013D-01 -0.307279D-02
     15  0.207619D+00  0.240971D+00  0.577013D-01  0.105351D+00 -0.225485D+00
     16 -0.119604D-01  0.505656D-01 -0.307279D-02  0.225485D+00 -0.374384D-02
     17 -0.783961D-03 -0.105366D-01  0.150508D+00  0.231228D-01 -0.590385D-03
     18  0.780371D-02  0.218291D+00  0.866409D-02 -0.196485D+00  0.102652D-01
     19 -0.680924D-02 -0.685895D-01  0.533563D-02  0.299954D+00  0.783923D-01
     20 -0.285459D-02  0.142848D-01 -0.281727D-01  0.403979D-01  0.737733D-02
     21  0.212854D+00  0.157459D+00  0.231886D-01  0.153025D+00  0.160212D+00
     22  0.482784D-02  0.215458D-01  0.659421D-02  0.143931D+00  0.364135D-02
     23  0.415203D-03  0.392713D-02 -0.564862D-01  0.753268D-02  0.343486D-03
     24  0.144220D-01  0.173459D+00  0.142074D-01  0.207619D+00  0.119604D-01
     25 -0.937482D-03 -0.567741D-01  0.707237D-01 -0.619611D-02  0.925954D-02
     26  0.459554D-01  0.810185D-01  0.127115D+00 -0.141013D-01  0.345506D-01
     27 -0.607469D-02 -0.635544D-02 -0.969043D-02 -0.948386D-01 -0.192391D-02
     28 -0.983296D-02 -0.357128D-01  0.152944D-01 -0.109809D-02 -0.309689D-02
     29  0.334837D-02  0.314577D-01  0.258555D-01 -0.109889D-01  0.514663D-03
     30 -0.903818D-02 -0.152711D-01 -0.376360D-01 -0.296881D-01 -0.603348D-02
     31  0.391294D-02 -0.137810D-02  0.139743D-01 -0.414035D-02  0.387599D-02
     32  0.116989D-01  0.161383D-01  0.248407D-01 -0.853655D-02  0.888014D-02
     33 -0.566593D-02 -0.568983D-02 -0.117897D-01 -0.386211D-02 -0.407602D-02
     34 -0.109998D-02 -0.534977D-01  0.627502D-01  0.231996D-01  0.602026D-02
     35  0.343871D-01  0.728884D-01  0.115491D+00  0.668499D-01  0.249246D-01
     36  0.272896D-01  0.412643D-01  0.941184D-01 -0.637736D-01  0.205671D-01
     37  0.354488D-02 -0.139603D-02  0.103635D-01  0.221544D-02  0.323388D-02
     38  0.963972D-02  0.116001D-01  0.173758D-01  0.586231D-02  0.726715D-02
     39  0.621970D-02  0.650393D-02  0.129245D-01 -0.304724D-02  0.480049D-02
     40 -0.586925D-02 -0.200578D-01 -0.186605D-02  0.699867D-03 -0.333839D-02
     41 -0.504984D-02  0.237497D-02 -0.318246D-02  0.141457D-01 -0.326471D-02
     42  0.904711D-02  0.120341D-01  0.350195D-01  0.296482D-02  0.790306D-02
     43 -0.742095D-01  0.342173D-01 -0.522606D-01 -0.540719D-01  0.282716D+00
     44  0.425220D-02 -0.152944D-01  0.156046D+00 -0.754961D-02  0.220196D-01
     45 -0.236076D+00  0.116585D+00 -0.585491D-02  0.166670D+00  0.150647D+00
     46  0.158916D-01  0.375135D-01  0.852278D-01  0.134624D-01  0.364849D-02
     47  0.240319D-01  0.110973D+00  0.406010D-01  0.230543D-01  0.104446D-01
     48  0.685870D-02  0.157660D-01  0.234400D-01 -0.283900D-01 -0.767525D-03
     49  0.188116D-01  0.102682D+00 -0.833723D-01  0.293107D-01  0.606718D-02
     50 -0.197158D-01 -0.108985D+00  0.131250D-02 -0.221941D-01 -0.941858D-02
     51  0.581627D-02  0.297661D-01 -0.210157D-01 -0.345550D-01 -0.417859D-03
               11            12            13            14            15 
     11  0.388368D+01
     12 -0.131291D+00  0.315219D+01
     13 -0.105366D-01 -0.218291D+00  0.103334D+02
     14  0.150508D+00 -0.866409D-02 -0.102472D+01  0.222112D+02
     15 -0.231228D-01 -0.196485D+00 -0.549236D+00  0.414076D-01  0.115054D+02
     16 -0.590385D-03 -0.102652D-01 -0.219027D+01  0.107490D+00 -0.140476D+01
     17  0.526465D-02 -0.100094D-03  0.168685D+00 -0.413325D+01 -0.121131D+00
     18  0.100094D-03 -0.266761D-01 -0.137934D+01 -0.776451D-01 -0.322458D+01
     19  0.997834D-02  0.151124D+00 -0.138686D+01  0.812679D+00  0.255150D+01
     20 -0.534360D-01  0.863443D-02  0.660263D+00 -0.120029D+02  0.143039D+00
     21  0.124282D-01  0.121447D+00  0.304918D+01  0.232553D+00 -0.842243D+01
     22  0.243131D-03  0.986147D-03  0.792118D-02 -0.101048D-01 -0.165725D+00
     23 -0.475812D-03  0.147139D-03  0.960717D-03  0.115311D+00 -0.342166D-02
     24  0.783961D-03  0.780371D-02 -0.135818D+00 -0.130384D-01 -0.393768D-01
     25  0.151164D-01  0.102150D-01 -0.534977D-01  0.627502D-01 -0.231996D-01
     26  0.171589D-01  0.190237D-01  0.728884D-01  0.115491D+00 -0.668499D-01
     27  0.184027D-02 -0.129558D-01 -0.412643D-01 -0.941184D-01 -0.637736D-01
     28  0.258940D-02 -0.824414D-03 -0.200578D-01 -0.186605D-02 -0.699867D-03
     29  0.129470D-02 -0.156996D-02  0.237497D-02 -0.318246D-02 -0.141457D-01
     30 -0.275320D-02 -0.667132D-02 -0.120341D-01 -0.350195D-01  0.296482D-02
     31  0.242956D-02  0.264195D-02 -0.139603D-02  0.103635D-01 -0.221544D-02
     32  0.345123D-02  0.491559D-02  0.116001D-01  0.173758D-01 -0.586231D-02
     33 -0.145392D-02 -0.328980D-02 -0.650393D-02 -0.129245D-01 -0.304724D-02
     34  0.968594D-02  0.107924D-01 -0.567741D-01  0.707237D-01  0.619611D-02
     35  0.971567D-02  0.199405D-01  0.810185D-01  0.127115D+00  0.141013D-01
     36  0.124483D-01  0.688091D-02  0.635544D-02  0.969043D-02 -0.948386D-01
     37  0.166683D-02  0.291363D-02 -0.137810D-02  0.139743D-01  0.414035D-02
     38  0.233804D-02  0.540537D-02  0.161383D-01  0.248407D-01  0.853655D-02
     39  0.196767D-02  0.297819D-02  0.568983D-02  0.117897D-01 -0.386211D-02
     40  0.300006D-03 -0.938648D-03 -0.357128D-01  0.152944D-01  0.109809D-02
     41 -0.144642D-02 -0.179818D-02  0.314577D-01  0.258555D-01  0.109889D-01
     42  0.420644D-02  0.549572D-02  0.152711D-01  0.376360D-01 -0.296881D-01
     43  0.275730D-01  0.168794D+00  0.342173D-01 -0.522606D-01  0.540719D-01
     44 -0.639945D-01  0.107970D-01 -0.152944D-01  0.156046D+00  0.754961D-02
     45  0.117975D-01 -0.903262D-02 -0.116585D+00  0.585491D-02  0.166670D+00
     46  0.149049D-02  0.422619D-02  0.375135D-01  0.852278D-01 -0.134624D-01
     47  0.801965D-05  0.649282D-02  0.110973D+00  0.406010D-01 -0.230543D-01
     48  0.160115D-02 -0.256623D-04 -0.157660D-01 -0.234400D-01 -0.283900D-01
     49 -0.991385D-03  0.556083D-02  0.102682D+00 -0.833723D-01 -0.293107D-01
     50 -0.157286D-02 -0.566914D-02 -0.108985D+00  0.131250D-02  0.221941D-01
     51 -0.180259D-02  0.244756D-04 -0.297661D-01  0.210157D-01 -0.345550D-01
               16            17            18            19            20 
     16  0.205164D+01
     17 -0.181468D+00  0.388368D+01
     18  0.143628D+01  0.131291D+00  0.315219D+01
     19 -0.244475D+00 -0.406294D-01  0.979399D-01  0.934419D+01
     20 -0.229004D-01  0.170516D+00  0.550952D-02 -0.923379D+00  0.212662D+02
     21  0.110420D+00  0.934804D-02  0.182656D+00 -0.882166D+00  0.126463D+00
     22 -0.541378D-01 -0.554297D-02 -0.279414D-01 -0.395669D+01  0.244437D-01
     23 -0.309722D-02  0.102357D-01 -0.160036D-02 -0.259177D-02 -0.415071D+01
     24 -0.142834D-01 -0.146711D-02  0.245109D-03  0.781503D+00  0.965826D-01
     25  0.602026D-02  0.968594D-02 -0.107924D-01 -0.946430D-01  0.429562D-02
     26  0.249246D-01  0.971567D-02 -0.199405D-01 -0.139258D-01  0.129970D+00
     27 -0.205671D-01 -0.124483D-01  0.688091D-02  0.616114D-02 -0.142995D+00
     28 -0.333839D-02  0.300006D-03  0.938648D-03 -0.911471D-02 -0.121062D-01
     29 -0.326471D-02 -0.144642D-02  0.179818D-02  0.178990D-02 -0.178919D-01
     30 -0.790306D-02 -0.420644D-02  0.549572D-02  0.607139D-02 -0.189383D-01
     31  0.323388D-02  0.166683D-02 -0.291363D-02 -0.773789D-02  0.721496D-02
     32  0.726715D-02  0.233804D-02 -0.540537D-02  0.520438D-03  0.201631D-01
     33 -0.480049D-02 -0.196767D-02  0.297819D-02  0.259923D-03 -0.159637D-01
     34  0.925954D-02  0.151164D-01 -0.102150D-01 -0.114288D+00  0.248660D-01
     35  0.345506D-01  0.171589D-01 -0.190237D-01 -0.111082D-01  0.185455D+00
     36  0.192391D-02 -0.184027D-02 -0.129558D-01 -0.171129D-03 -0.204743D-01
     37  0.387599D-02  0.242956D-02 -0.264195D-02 -0.110242D-01  0.107505D-01
     38  0.888014D-02  0.345123D-02 -0.491559D-02  0.230855D-02  0.359644D-01
     39  0.407602D-02  0.145392D-02 -0.328980D-02 -0.138109D-03  0.126233D-01
     40 -0.309689D-02  0.258940D-02  0.824414D-03 -0.566359D-01 -0.475099D-01
     41  0.514663D-03  0.129470D-02  0.156996D-02 -0.235251D-01  0.757273D-01
     42  0.603348D-02  0.275320D-02 -0.667132D-02 -0.741724D-02  0.328535D-01
     43  0.282716D+00  0.275730D-01 -0.168794D+00 -0.384069D+01  0.250842D+00
     44  0.220196D-01 -0.639945D-01 -0.107970D-01  0.174898D+00 -0.635442D+01
     45 -0.150647D+00 -0.117975D-01 -0.903262D-02 -0.289331D+01 -0.271955D+00
     46  0.364849D-02  0.149049D-02 -0.422619D-02  0.100459D+00  0.746643D-01
     47  0.104446D-01  0.801955D-05 -0.649282D-02  0.144924D+00  0.158628D-01
     48  0.767525D-03 -0.160115D-02 -0.256623D-04 -0.548876D-01  0.517748D-03
     49  0.606718D-02 -0.991385D-03 -0.556083D-02  0.965279D-01 -0.282076D-01
     50 -0.941858D-02 -0.157286D-02  0.566914D-02 -0.920101D-01  0.109285D-02
     51  0.417859D-03  0.180259D-02  0.244756D-04 -0.279617D-01 -0.173516D-01
               21            22            23            24            25 
     21  0.126146D+02
     22  0.799129D+00  0.391972D+01
     23  0.901073D-02  0.100776D-01  0.396518D+01
     24 -0.156436D+01 -0.868591D+00  0.904013D-02  0.136242D+01
     25 -0.690329D-02 -0.848403D-02 -0.101659D-02  0.109998D-02  0.178352D+02
     26 -0.111325D+00 -0.810228D-02  0.905048D-02 -0.343871D-01 -0.257907D+01
     27 -0.318003D-01  0.853707D-02 -0.180043D-01  0.272896D-01 -0.587730D-01
     28  0.715818D-02  0.244847D-03 -0.136266D-02  0.586925D-02 -0.350298D+01
     29  0.531281D-02  0.148176D-02 -0.175443D-02  0.504984D-02  0.722470D+00
     30  0.474861D-03  0.280991D-02 -0.278160D-02  0.904711D-02  0.583419D+00
     31 -0.232714D-02 -0.163466D-02  0.791717D-03 -0.354488D-02 -0.315443D+01
     32 -0.102057D-01 -0.212143D-02  0.208830D-02 -0.963972D-02  0.678111D+00
     33 -0.352443D-04  0.157452D-02 -0.215130D-02  0.621970D-02 -0.513064D+00
     34 -0.478201D-02 -0.132224D-01 -0.106358D-02  0.937482D-03 -0.108023D+02
     35 -0.217683D-01 -0.135355D-01  0.214829D-01 -0.459554D-01  0.105220D+01
     36 -0.117799D+00  0.275478D-02 -0.117427D-01 -0.607469D-02 -0.142420D-01
     37  0.172642D-02 -0.243751D-02  0.142832D-02 -0.391294D-02  0.284208D-01
     38  0.509100D-02 -0.282705D-02  0.519594D-02 -0.116989D-01  0.252429D-01
     39 -0.748898D-02 -0.118876D-02  0.965662D-03 -0.566593D-02  0.489438D-02
     40 -0.380301D-02 -0.179747D-02 -0.730244D-02  0.983296D-02  0.144111D-01
     41 -0.287448D-02 -0.331952D-02  0.733755D-02 -0.334837D-02  0.268018D-01
     42 -0.602108D-01 -0.587589D-03 -0.206073D-02 -0.903818D-02  0.693335D-02
     43 -0.323749D+01  0.151028D+00  0.242488D-03  0.742095D-01 -0.798555D-01
     44 -0.219190D+00  0.322607D-02  0.123837D+00 -0.425220D-02 -0.635113D-01
     45 -0.241631D+01  0.723327D-01  0.154435D-01 -0.236076D+00  0.776936D-02
     46 -0.837093D-01 -0.444748D-02  0.304150D-02 -0.158916D-01 -0.110487D-01
     47 -0.687009D-01 -0.878312D-03 -0.471337D-03 -0.240319D-01 -0.357185D-01
     48 -0.425987D-01  0.366168D-04 -0.235005D-02  0.685870D-02  0.140483D-01
     49 -0.590979D-01 -0.406401D-02 -0.344367D-02 -0.188116D-01 -0.174183D-02
     50  0.341231D-01  0.934473D-03 -0.681068D-03  0.197158D-01 -0.118853D-01
     51 -0.173569D-01  0.453789D-03  0.201628D-02  0.581626D-02  0.945981D-03
               26            27            28            29            30 
     26  0.133382D+02
     27  0.173827D+00  0.692854D+01
     28  0.839880D+00  0.502737D+00  0.353371D+01
     29 -0.249123D+01  0.882521D+00 -0.656360D+00  0.241908D+01
     30  0.118804D+01 -0.331616D+01 -0.618609D+00 -0.109610D+01  0.327108D+01
     31  0.636702D+00 -0.457738D+00  0.483338D-01 -0.135931D+00  0.247739D-02
     32 -0.229569D+01 -0.877694D+00 -0.151158D+00 -0.135299D+00  0.309759D-02
     33 -0.924463D+00 -0.294727D+01 -0.509020D-03 -0.277211D-02  0.142253D+00
     34  0.105220D+01  0.142420D-01  0.144111D-01  0.268018D-01 -0.693335D-02
     35 -0.949873D+01  0.210975D+00  0.218536D-01  0.631328D-01 -0.222543D-03
     36 -0.210975D+00 -0.367692D+00  0.513559D-01  0.131978D+00  0.657872D-01
     37  0.265870D-01  0.578535D-01 -0.973345D-03  0.277742D-01  0.448978D-01
     38  0.615611D-01  0.997982D-01  0.293381D-01  0.360917D-01  0.858947D-01
     39  0.114017D-01  0.730850D-01  0.445180D-01  0.803160D-01  0.817539D-01
     40  0.218536D-01 -0.513559D-01  0.379495D-01  0.637822D-03 -0.125835D-02
     41  0.631328D-01 -0.131978D+00  0.637822D-03  0.401468D-01 -0.156710D-01
     42  0.222543D-03  0.657872D-01  0.125835D-02  0.156710D-01 -0.152032D+00
     43 -0.619875D-01  0.109306D-01 -0.851965D-02 -0.175035D-02  0.981870D-02
     44  0.143553D+00 -0.743775D-01 -0.297868D-01 -0.135870D-01 -0.305906D-01
     45 -0.420595D-01 -0.963874D-01  0.118996D-01 -0.502560D-02 -0.426984D-02
     46 -0.817462D-01  0.318633D-01  0.382726D-02  0.834661D-02  0.549545D-02
     47  0.348592D-01 -0.258788D-01  0.573293D-02 -0.233007D-02  0.488340D-02
     48 -0.326576D-01 -0.384705D-01  0.726229D-03  0.280342D-02 -0.772795D-04
     49 -0.211299D-01  0.823753D-02  0.374966D-02  0.501442D-03  0.504780D-02
     50  0.289241D-01 -0.139940D-01 -0.817463D-02 -0.194107D-02 -0.720614D-02
     51 -0.348179D-02 -0.834938D-02  0.130991D-02 -0.107012D-02 -0.702394D-03
               31            32            33            34            35 
     31  0.308346D+01
     32 -0.609896D+00  0.215286D+01
     33  0.571259D+00  0.110229D+01  0.279124D+01
     34  0.284208D-01  0.252429D-01 -0.489438D-02  0.178352D+02
     35  0.265870D-01  0.615611D-01 -0.114017D-01 -0.257907D+01  0.133382D+02
     36 -0.578535D-01 -0.997982D-01  0.730850D-01  0.587730D-01 -0.173827D+00
     37  0.279602D-01  0.113097D-02  0.170335D-02 -0.315443D+01  0.636702D+00
     38  0.113097D-02  0.302183D-01 -0.849084D-03  0.678111D+00 -0.229569D+01
     39 -0.170335D-02  0.849084D-03 -0.121998D+00  0.513064D+00  0.924463D+00
     40 -0.973345D-03  0.293381D-01 -0.445180D-01 -0.350298D+01  0.839880D+00
     41  0.277742D-01  0.360917D-01 -0.803160D-01  0.722470D+00 -0.249123D+01
     42 -0.448978D-01 -0.858947D-01  0.817539D-01 -0.583419D+00 -0.118804D+01
     43 -0.868603D-02 -0.938289D-03  0.430971D-03 -0.798555D-01 -0.619875D-01
     44  0.500250D-02  0.331022D-01 -0.188915D-01 -0.635113D-01  0.143553D+00
     45 -0.117301D-02 -0.109984D-01 -0.379284D-02 -0.776936D-02  0.420595D-01
     46 -0.336048D-02 -0.810447D-02  0.449214D-02 -0.110487D-01 -0.817462D-01
     47 -0.199856D-02 -0.298214D-02  0.111649D-02 -0.357185D-01  0.348592D-01
     48 -0.505627D-05 -0.285297D-02 -0.713300D-03 -0.140483D-01  0.326576D-01
     49 -0.223369D-02 -0.549355D-02  0.300865D-02 -0.174183D-02 -0.211299D-01
     50  0.200941D-02  0.872270D-02 -0.487483D-02 -0.118853D-01  0.289241D-01
     51 -0.523488D-04 -0.873131D-03 -0.361370D-03 -0.945981D-03  0.348179D-02
               36            37            38            39            40 
     36  0.692854D+01
     37  0.457738D+00  0.308346D+01
     38  0.877694D+00 -0.609896D+00  0.215286D+01
     39 -0.294727D+01 -0.571259D+00 -0.110229D+01  0.279124D+01
     40 -0.502737D+00  0.483338D-01 -0.151158D+00  0.509020D-03  0.353371D+01
     41 -0.882521D+00 -0.135931D+00 -0.135299D+00  0.277211D-02 -0.656360D+00
     42 -0.331616D+01 -0.247739D-02 -0.309759D-02  0.142253D+00  0.618609D+00
     43 -0.109306D-01 -0.868603D-02 -0.938289D-03 -0.430970D-03 -0.851965D-02
     44  0.743775D-01  0.500250D-02  0.331022D-01  0.188915D-01 -0.297868D-01
     45 -0.963874D-01  0.117301D-02  0.109984D-01 -0.379284D-02 -0.118996D-01
     46 -0.318633D-01 -0.336048D-02 -0.810447D-02 -0.449214D-02  0.382726D-02
     47  0.258788D-01 -0.199856D-02 -0.298214D-02 -0.111649D-02  0.573293D-02
     48 -0.384705D-01  0.505640D-05  0.285298D-02 -0.713300D-03 -0.726229D-03
     49 -0.823753D-02 -0.223369D-02 -0.549355D-02 -0.300865D-02  0.374966D-02
     50  0.139940D-01  0.200941D-02  0.872270D-02  0.487483D-02 -0.817463D-02
     51 -0.834938D-02  0.523488D-04  0.873131D-03 -0.361370D-03 -0.130991D-02
               41            42            43            44            45 
     41  0.241908D+01
     42  0.109610D+01  0.327108D+01
     43 -0.175035D-02 -0.981870D-02  0.134927D+02
     44 -0.135870D-01  0.305906D-01 -0.160429D+00  0.168924D+02
     45  0.502561D-02 -0.426984D-02  0.000000D+00  0.000000D+00  0.131138D+02
     46  0.834661D-02 -0.549545D-02 -0.354724D+01  0.107334D+01  0.000000D+00
     47 -0.233007D-02 -0.488340D-02  0.832714D+00 -0.230817D+01  0.000000D+00
     48 -0.280342D-02 -0.772792D-04  0.000000D+00  0.000000D+00 -0.403349D+01
     49  0.501442D-03 -0.504780D-02 -0.300585D+01 -0.110602D+01  0.000000D+00
     50 -0.194107D-02  0.720614D-02 -0.995726D+00 -0.263336D+01  0.000000D+00
     51  0.107012D-02 -0.702393D-03  0.000000D+00  0.000000D+00 -0.388194D+01
               46            47            48            49            50 
     46  0.325819D+01
     47 -0.127019D+01  0.211434D+01
     48  0.000000D+00  0.000000D+00  0.421605D+01
     49  0.358697D-01 -0.294813D-01  0.000000D+00  0.256800D+01
     50  0.310093D-01  0.227342D-01  0.000000D+00  0.141978D+01  0.253891D+01
     51  0.000000D+00  0.000000D+00  0.242730D-01  0.000000D+00  0.000000D+00
               51 
     51  0.396864D+01
 Leave Link  701 at Tue Jun  9 16:11:05 2015, MaxMem=   536870912 cpu:         1.0
 (Enter /usr/local/research/Gaussian09/g09-revD.01/g09/l702.exe)
 L702 exits ... SP integral derivatives will be done elsewhere.
 Leave Link  702 at Tue Jun  9 16:11:05 2015, MaxMem=   536870912 cpu:         0.0
 (Enter /usr/local/research/Gaussian09/g09-revD.01/g09/l703.exe)
[...]
 ! D67   D(1,15,16,10)         -32.5801         -DE/DX =    0.0                 !
 ! D68   D(1,15,16,14)         -82.6069         -DE/DX =    0.0                 !
 ! D69   D(7,15,16,10)          82.6069         -DE/DX =    0.0                 !
 ! D70   D(7,15,16,14)          32.5801         -DE/DX =    0.0                 !
 ! D71   D(17,15,16,10)       -154.9866         -DE/DX =    0.0                 !
 ! D72   D(17,15,16,14)        154.9866         -DE/DX =    0.0                 !
 --------------------------------------------------------------------------------
 GradGradGradGradGradGradGradGradGradGradGradGradGradGradGradGradGradGrad

 Leave Link  103 at Tue Jun  9 16:12:17 2015, MaxMem=   536870912 cpu:         0.2
 (Enter /usr/local/research/Gaussian09/g09-revD.01/g09/l9999.exe)

 Test job not archived.
 1\1\GINC-HEISENBERG002\Freq\RPBE1PBE\def2SVP\C7H10\LEIN\09-Jun-2015\0\
 \#p pbe1pbe EmpiricalDispersion=GD3BJ def2svp geom=allcheck guess=read
  integral=(grid=ultrafine) freq scf=(conver=10,xqc) pop=(hirshfeld,cm5
 ) density=current iop(7/33=1) iop(6/80=1)\\-- Dielsalder Reactant --\\
 0,1\C,1.0836992183,0.3329838997,1.1748318231\H,1.0217511056,0.65661114
 5,2.2146106374\C,1.3261302769,-0.9202928078,0.7317850913\H,1.497835092
 9,-1.80147149,1.3527229346\C,1.3261302769,-0.9202928078,-0.7317850913\
 H,1.4978350929,-1.80147149,-1.3527229346\C,1.0836992183,0.3329838997,-
 1.1748318231\H,1.0217511056,0.656611145,-2.2146106374\C,-2.595803216,-
 0.1212874467,0.6658461722\H,-1.7220881476,-0.4589956034,1.2316984605\H
 ,-3.4634295422,0.2163877355,1.2416485929\C,-2.595803216,-0.1212874467,
 -0.6658461722\H,-3.4634295422,0.2163877355,-1.2416485929\H,-1.72208814
 76,-0.4589956034,-1.2316984605\C,0.9002308402,1.2387857692,0.\H,-0.104
 6448554,1.7021047438,0.\H,1.6211477733,2.0775862857,0.\\Version=EM64L-
 G09RevD.01\State=1-A'\HF=-272.1675569\RMSD=0.000e+00\RMSF=2.815e-07\Ze
 roPoint=0.1448482\Thermal=0.1531319\Dipole=0.0247395,0.2115248,0.\Dipo
 leDeriv=-0.2485884,-0.0680288,-0.0065649,-0.0300833,0.0951294,-0.03973
 92,0.029287,-0.0292285,-0.110427,0.1469222,0.0130807,0.0154565,0.01463
 81,0.0728814,-0.020013,0.0069446,-0.0291759,-0.0410442,-0.1547956,-0.0
 142846,0.0177961,-0.0636144,-0.0678109,-0.1572356,0.0311397,-0.1404983
 ,0.0902545,0.1482334,0.0285324,-0.0092969,0.0326167,-0.0066835,0.06947
 95,-0.0162899,0.073089,0.0193817,-0.1547956,-0.0142846,-0.0177961,-0.0
 636144,-0.0678109,0.1572356,-0.0311397,0.1404983,0.0902545,0.1482334,0
 .0285324,0.0092969,0.0326167,-0.0066835,-0.0694795,0.0162899,-0.073089
 ,0.0193817,-0.2485885,-0.0680288,0.0065649,-0.0300833,0.0951294,0.0397
 392,-0.029287,0.0292284,-0.110427,0.1469222,0.0130807,-0.0154565,0.014
 6381,0.0728814,0.020013,-0.0069446,0.0291759,-0.0410442,-0.0100142,-0.
 1099893,-0.0451404,-0.1527376,-0.2208405,0.0254944,-0.0450295,0.009847
 3,-0.0381383,0.0572832,0.0595642,-0.0579132,0.0733894,0.0962128,0.0054
 979,-0.0446964,0.004662,0.0135404,-0.0309634,0.0503669,0.0772772,0.075
 071,0.1130608,-0.0285611,0.0429357,-0.0194619,0.0206648,-0.0100142,-0.
 1099893,0.0451404,-0.1527376,-0.2208405,-0.0254944,0.0450295,-0.009847
 3,-0.0381383,-0.0309634,0.0503669,-0.0772772,0.075071,0.1130608,0.0285
 611,-0.0429357,0.0194619,0.0206648,0.0572832,0.0595642,0.0579132,0.073
 3894,0.0962128,-0.0054979,0.0446964,-0.004662,0.0135404,0.105053,0.105
 3833,0.,0.0892582,-0.2762283,0.,0.,0.,-0.0704902,0.0355995,0.0811798,0
 .,0.0757554,0.0972895,0.,0.,0.,0.0727289,0.0431932,-0.105046,0.,-0.063
 5734,0.0150399,0.,0.,0.,0.0892975\Polar=58.6349789,-7.0981471,70.78114
 43,0.,0.,81.6449543\PG=CS [SG(C1H2),X(C6H8)]\NImag=1\\0.16099927,-0.10
 866233,0.69844345,-0.02774558,0.14911828,0.73326014,-0.03179881,0.0098
 6571,0.01581223,0.02347951,0.00988865,-0.08128137,-0.08276127,-0.01030
 477,0.07521528,0.01619427,-0.08567229,-0.32819416,-0.01740646,0.091498
 06,0.34080391,-0.07767454,0.07530366,0.02308581,0.00517683,0.00071874,
 -0.00073925,0.15871597,0.07511469,-0.45194543,-0.12027494,0.00081375,0
 .00140895,0.00405791,-0.13888749,0.84571322,0.02066166,-0.10855756,-0.
 13890327,0.00506055,-0.02601768,-0.00176019,0.00995194,-0.05045118,0.5
 9860275,0.00395112,0.00291576,-0.00378588,-0.00514291,-0.00118383,0.00
 007997,-0.04566537,0.04101389,-0.02622379,0.03379387,0.00300161,-0.010
 69876,0.01965625,-0.00119074,0.00074393,-0.00037187,0.04094006,-0.2475
 4017,0.13428005,-0.04504736,0.25593280,0.00211481,-0.01074304,0.011103
 06,-0.00015545,0.00083224,0.00030739,-0.02647683,0.13594784,-0.1540485
 8,0.02855332,-0.14655314,0.15233642,0.01069917,0.00147292,0.00454182,0
 .00678587,0.00232354,0.00022889,-0.06137002,0.00792810,0.00212782,0.00
 077120,-0.00105547,-0.00436088,0.15871597,0.00134834,0.00349409,-0.023
 59955,0.00230506,-0.00468694,-0.00143311,0.00792810,-0.10071477,-0.010
 69605,-0.00105389,0.00596538,0.02225070,-0.13888749,0.84571322,0.01010
 343,-0.05031487,-0.03985317,0.00029837,-0.00138874,-0.00009378,-0.0021
 2782,0.01069605,-0.25551372,0.00097627,-0.00506699,-0.00429057,-0.0099
 5194,0.05045118,0.59860275,0.00180791,0.00040252,-0.00032493,0.0006262
 9,0.00003706,-0.00001932,0.00077120,-0.00105389,-0.00097627,-0.0006676
 3,-0.00011572,0.00013231,-0.04566537,0.04101389,0.02622379,0.03379387,
 0.00042692,-0.00029735,0.00194676,0.00003328,0.00047145,0.00005571,-0.
 00105547,0.00596538,0.00506699,-0.00011572,-0.00012552,-0.00066891,0.0
 4094006,-0.24754017,-0.13428005,-0.04504736,0.25593280,0.00006667,-0.0
 0031375,-0.00572990,0.00023822,-0.00125113,-0.00008751,0.00436088,-0.0
 2225070,-0.00429057,-0.00013231,0.00066891,0.00074892,0.02647683,-0.13
 594784,-0.15404858,-0.02855332,0.14655314,0.15233642,0.00743067,0.0039
 2750,-0.00058894,-0.00039104,0.00071717,-0.00049895,0.01069917,0.00134
 834,-0.01010343,0.00180791,0.00042692,-0.00006667,-0.07767454,0.075114
 69,-0.02066166,0.00395112,0.00300161,-0.00211481,0.16099927,0.00392750
 ,-0.01186103,0.00104886,0.00074060,-0.00368704,0.00243065,0.00147292,0
 .00349409,0.05031487,0.00040252,-0.00029735,0.00031375,0.07530366,-0.4
 5194543,0.10855756,0.00291576,-0.01069876,0.01074304,-0.10866233,0.698
 44345,0.00058894,-0.00104886,-0.05645459,-0.00064052,0.00329831,-0.001
 61139,-0.00454182,0.02359955,-0.03985317,0.00032493,-0.00194676,-0.005
 72990,-0.02308581,0.12027494,-0.13890327,0.00378588,-0.01965625,0.0111
 0306,0.02774558,-0.14911828,0.73326014,-0.00039104,0.00074060,0.000640
 52,0.00212774,0.00021196,0.00012972,0.00678587,0.00230506,-0.00029837,
 0.00062629,0.00003328,-0.00023822,0.00517683,0.00081375,-0.00506055,-0
 .00514291,-0.00119074,0.00015545,-0.03179881,0.00986571,-0.01581223,0.
 02347951,0.00071717,-0.00368704,-0.00329831,0.00021196,0.00104445,-0.0
 0067201,0.00232354,-0.00468694,0.00138874,0.00003706,0.00047145,0.0012
 5113,0.00071874,0.00140895,0.02601768,-0.00118383,0.00074393,-0.000832
 24,0.00988865,-0.08128137,0.08276127,-0.01030477,0.07521528,0.00049895
 ,-0.00243065,-0.00161139,-0.00012972,0.00067201,-0.00036570,-0.0002288
 9,0.00143311,-0.00009378,0.00001932,-0.00005571,-0.00008751,0.00073925
 ,-0.00405791,-0.00176019,-0.00007997,0.00037187,0.00030739,-0.01619427
 ,0.08567229,-0.32819416,0.01740646,-0.09149806,0.34080391,-0.00046445,
 -0.00002886,0.00001654,-0.00007390,-0.00007087,-0.00010091,-0.00015636
 ,-0.00024074,0.00008571,-0.00009419,0.00007868,-0.00003576,-0.00006822
 ,0.00012903,-0.00011541,0.00004445,-0.00002742,-0.00000651,0.00013647,
 -0.00010101,-0.00026179,0.00009525,0.00006199,-0.00009291,0.57776490,-
 0.00051197,-0.00002696,0.00043039,0.00019987,0.00003325,0.00013411,-0.
 00007494,-0.00002998,-0.00025013,-0.00004748,0.00002663,-0.00001779,0.
 00015811,0.00005550,0.00003934,-0.00005742,0.00005511,0.00005725,0.000
 10013,-0.00018474,0.00010413,-0.00006074,-0.00002364,0.00004621,-0.180
 89616,0.18107519,0.00096175,-0.00060599,0.00001766,-0.00006033,-0.0000
 1556,-0.00001498,0.00041127,0.00066511,0.00045757,-0.00009251,0.000046
 69,-0.00002216,-0.00019192,0.00030707,-0.00003781,-0.00000028,0.000035
 49,-0.00003251,0.00029778,-0.00031411,-0.00025492,-0.00004994,-0.00001
 651,0.00000644,0.00033996,-0.00007090,0.88943407,-0.00041106,-0.000682
 98,-0.00019690,-0.00009358,-0.00003842,-0.00000882,-0.00039097,0.00043
 842,0.00009649,-0.00000782,0.00001004,-0.00000231,0.00002913,0.0001286
 5,0.00030979,0.00001977,-0.00001038,-0.00005244,-0.00010567,0.00006479
 ,-0.00025900,0.00004100,0.00001769,-0.00001838,-0.24263486,0.08027269,
 -0.12087015,0.24672438,0.00006120,0.00017047,-0.00024489,-0.00020115,-
 0.00002565,-0.00013155,0.00009530,-0.00003599,0.00005911,0.00014232,-0
 .00005530,0.00004615,-0.00012661,-0.00009557,-0.00004804,0.00002826,-0
 .00002214,-0.00004371,-0.00018427,0.00008465,-0.00007593,0.00005390,-0
 .00000396,-0.00002777,0.07982392,-0.06814096,0.04651442,-0.08620720,0.
 05860221,-0.00035215,0.00020319,0.00032130,-0.00010286,-0.00008538,-0.
 00006676,-0.00030020,-0.00030039,0.00003268,0.00003558,0.00004273,0.00
 003365,0.00007598,-0.00008029,-0.00022043,0.00001281,0.00001683,-0.000
 00742,-0.00003749,0.00011689,-0.00017591,-0.00002765,-0.00001295,0.000
 02388,-0.11485111,0.04458663,-0.12878059,0.12847611,-0.04967226,0.1349
 4103,-0.00033762,0.00021238,0.00019744,0.00003447,0.00002881,0.0000092
 0,-0.00019942,-0.00029117,-0.00010823,0.00005311,-0.00000842,0.0000195
 9,0.00005516,-0.00008951,-0.00011721,0.00000842,0.00000089,0.00000925,
 0.00006795,0.00004367,0.00006025,-0.00000660,-0.00000464,0.00001515,-0
 .23953429,0.07888272,0.11977102,-0.01083458,0.00539097,0.01303304,0.24
 354880,0.00022024,-0.00016250,-0.00002756,-0.00003965,0.00000176,-0.00
 001934,0.00008500,0.00016139,0.00011065,-0.00002041,-0.00000367,-0.000
 00087,-0.00001832,0.00005540,-0.00002527,0.00000830,-0.00001046,-0.000
 01342,0.00014554,-0.00003666,0.00001411,-0.00002570,0.00000118,0.00000
 995,0.07889159,-0.06748297,-0.04658713,0.00521089,0.00050042,-0.005139
 73,-0.08535995,0.05739755,-0.00022654,0.00014655,0.00018199,0.00003565
 ,0.00001209,0.00002563,-0.00018258,-0.00012979,-0.00008821,0.00004242,
 -0.00001163,0.00002455,0.00011079,0.00006557,-0.00015846,-0.00003377,0
 .00001835,0.00001480,0.00017206,-0.00008674,0.00010167,-0.00006284,-0.
 00002937,0.00004035,0.11504684,-0.04475578,-0.13022835,-0.01190397,0.0
 0475266,0.00916681,-0.12893717,0.05015162,0.13594076,0.00013647,-0.000
 10101,0.00026179,0.00009525,0.00006199,0.00009291,-0.00006822,0.000129
 03,0.00011541,0.00004445,-0.00002742,0.00000651,-0.00015636,-0.0002407
 4,-0.00008571,-0.00009419,0.00007868,0.00003576,-0.00046445,-0.0000288
 6,-0.00001654,-0.00007390,-0.00007087,0.00010091,-0.10326102,0.0211825
 7,-0.00008535,0.00466297,0.00061268,-0.02658753,0.00423960,0.00074543,
 0.02686723,0.57776490,0.00010013,-0.00018474,-0.00010413,-0.00006074,-
 0.00002364,-0.00004621,0.00015811,0.00005550,-0.00003934,-0.00005742,0
 .00005511,-0.00005725,-0.00007494,-0.00002998,0.00025013,-0.00004748,0
 .00002663,0.00001779,-0.00051197,-0.00002696,-0.00043039,0.00019987,0.
 00003325,-0.00013411,0.02118257,-0.05728075,0.00000166,0.00040986,0.00
 584154,0.01035874,0.00077620,0.00589624,-0.01044337,-0.18089616,0.1810
 7519,-0.00029778,0.00031411,-0.00025492,0.00004994,0.00001651,0.000006
 44,0.00019192,-0.00030707,-0.00003781,0.00000028,-0.00003549,-0.000032
 51,-0.00041127,-0.00066511,0.00045757,0.00009251,-0.00004669,-0.000022
 16,-0.00096175,0.00060599,0.00001766,0.00006033,0.00001556,-0.00001498
 ,0.00008535,-0.00000166,-0.60773040,0.00354444,-0.00131599,-0.01150045
 ,-0.00330418,0.00131918,-0.01148938,-0.00033996,0.00007090,0.88943407,
 0.00006795,0.00004367,-0.00006025,-0.00000660,-0.00000464,-0.00001515,
 0.00005516,-0.00008951,0.00011721,0.00000842,0.00000089,-0.00000925,-0
 .00019942,-0.00029117,0.00010823,0.00005311,-0.00000842,-0.00001959,-0
 .00033762,0.00021238,-0.00019744,0.00003447,0.00002881,-0.00000920,0.0
 0423960,0.00077620,0.00330418,0.00300091,0.00376220,0.00056430,-0.0000
 6469,-0.00342468,-0.00002760,-0.23953429,0.07888272,-0.11977102,0.2435
 4880,0.00014554,-0.00003666,-0.00001411,-0.00002570,0.00000118,-0.0000
 0995,-0.00001832,0.00005540,0.00002527,0.00000830,-0.00001046,0.000013
 42,0.00008500,0.00016139,-0.00011065,-0.00002041,-0.00000367,0.0000008
 7,0.00022024,-0.00016250,0.00002756,-0.00003965,0.00000176,0.00001934,
 0.00074543,0.00589624,-0.00131918,0.00367946,0.01124918,-0.00025277,-0
 .00342468,-0.00754033,0.00001066,0.07889159,-0.06748297,0.04658713,-0.
 08535995,0.05739755,-0.00017206,0.00008674,0.00010167,0.00006284,0.000
 02937,0.00004035,-0.00011079,-0.00006557,-0.00015846,0.00003377,-0.000
 01835,0.00001480,0.00018258,0.00012979,-0.00008821,-0.00004242,0.00001
 163,0.00002455,0.00022654,-0.00014655,0.00018199,-0.00003565,-0.000012
 09,0.00002563,-0.02686723,0.01044337,-0.01148938,0.00092423,-0.0003013
 9,-0.00483113,0.00002760,-0.00001066,0.00140496,-0.11504684,0.04475578
 ,-0.13022835,0.12893717,-0.05015162,0.13594076,-0.00010567,0.00006479,
 0.00025900,0.00004100,0.00001769,0.00001838,0.00002913,0.00012865,-0.0
 0030979,0.00001977,-0.00001038,0.00005244,-0.00039097,0.00043842,-0.00
 009649,-0.00000782,0.00001004,0.00000231,-0.00041106,-0.00068298,0.000
 19690,-0.00009358,-0.00003842,0.00000882,0.00466297,0.00040986,-0.0035
 4444,0.00005421,-0.00326297,-0.00008378,0.00300091,0.00367946,-0.00092
 423,-0.24263486,0.08027269,0.12087015,-0.01083458,0.00521089,0.0119039
 7,0.24672438,-0.00018427,0.00008465,0.00007593,0.00005390,-0.00000396,
 0.00002777,-0.00012661,-0.00009557,0.00004804,0.00002826,-0.00002214,0
 .00004371,0.00009530,-0.00003599,-0.00005911,0.00014232,-0.00005530,-0
 .00004615,0.00006120,0.00017047,0.00024489,-0.00020115,-0.00002565,0.0
 0013155,0.00061268,0.00584154,0.00131599,-0.00326297,-0.00757077,0.000
 06647,0.00376220,0.01124918,0.00030139,0.07982392,-0.06814096,-0.04651
 442,0.00539097,0.00050042,-0.00475266,-0.08620720,0.05860221,0.0000374
 9,-0.00011689,-0.00017591,0.00002765,0.00001295,0.00002388,-0.00007598
 ,0.00008029,-0.00022043,-0.00001281,-0.00001683,-0.00000742,0.00030020
 ,0.00030039,0.00003268,-0.00003558,-0.00004273,0.00003365,0.00035215,-
 0.00020319,0.00032130,0.00010286,0.00008538,-0.00006676,0.02658753,-0.
 01035874,-0.01150045,0.00008378,-0.00006647,0.00128646,-0.00056430,0.0
 0025277,-0.00483113,0.11485111,-0.04458663,-0.12878059,-0.01303304,0.0
 0513973,0.00916681,-0.12847611,0.04967226,0.13494103,-0.07447826,0.008
 52723,-0.01232046,-0.00166155,-0.00239971,0.00205487,0.00363422,0.0113
 5713,0.00070266,0.01128402,0.00285163,0.00042985,0.00363422,0.01135713
 ,-0.00070266,0.01128402,0.00285163,-0.00042985,-0.07447826,0.00852723,
 0.01232046,-0.00166155,-0.00239971,-0.00205487,-0.00021757,-0.00013799
 ,-0.00031513,-0.00006898,0.00001968,0.00016692,0.00000331,-0.00008898,
 0.00001984,-0.00021757,-0.00013799,0.00031513,0.00000331,-0.00008898,-
 0.00001984,-0.00006898,0.00001968,-0.00016692,0.53265584,0.00946836,-0
 .12037674,0.06140400,-0.00243767,0.01016467,-0.01022987,0.01070064,-0.
 04948438,0.00230820,0.00294917,-0.00315589,-0.00248258,0.01070064,-0.0
 4948439,-0.00230820,0.00294917,-0.00315589,0.00248258,0.00946836,-0.12
 037674,-0.06140400,-0.00243767,0.01016467,0.01022987,-0.00026344,-0.00
 004629,-0.00043690,-0.00003681,-0.00015774,-0.00006627,-0.00003658,-0.
 00005081,0.00000133,-0.00026344,-0.00004629,0.00043690,-0.00003658,-0.
 00005081,-0.00000133,-0.00003681,-0.00015774,0.00006627,-0.00819436,0.
 59582875,-0.01602393,0.07928381,-0.17806311,-0.00336084,0.01638714,-0.
 00910737,-0.00225823,0.01161233,0.00406312,0.00036466,-0.00156389,-0.0
 0115226,0.00225823,-0.01161233,0.00406312,-0.00036466,0.00156389,-0.00
 115226,0.01602393,-0.07928381,-0.17806311,0.00336084,-0.01638714,-0.00
 910737,0.00001432,-0.00014360,0.00023911,-0.00000222,0.00019770,-0.000
 16054,-0.00013325,-0.00003801,-0.00008050,-0.00001432,0.00014360,0.000
 23911,0.00013325,0.00003801,-0.00008050,0.00000222,-0.00019770,-0.0001
 6054,0.,0.,0.44647438,-0.00174697,0.00109248,0.00013179,0.00048591,0.0
 0039436,-0.00028122,-0.00020028,-0.00100596,-0.00082716,-0.00006810,-0
 .00005502,0.00000090,-0.00020028,-0.00100596,0.00082716,-0.00006810,-0
 .00005502,-0.00000090,-0.00174697,0.00109248,-0.00013179,0.00048591,0.
 00039436,0.00028122,-0.00031284,-0.00007740,0.00029748,0.00000680,-0.0
 0009356,0.00003844,0.00000719,-0.00000085,0.00000200,-0.00031284,-0.00
 007740,-0.00029748,0.00000719,-0.00000085,-0.00000200,0.00000680,-0.00
 009356,-0.00003844,-0.26005027,0.10344829,0.,0.28167165,0.01408337,-0.
 00868732,-0.00152551,-0.00064690,0.00025609,0.00012267,0.00088841,-0.0
 0126700,0.00093640,-0.00143442,-0.00094925,-0.00007932,0.00088841,-0.0
 0126700,-0.00093640,-0.00143442,-0.00094925,0.00007932,0.01408337,-0.0
 0868732,0.00152551,-0.00064690,0.00025609,-0.00012267,0.00004653,0.000
 18566,0.00041989,-0.00001964,-0.00031178,0.00021199,0.00011583,0.00001
 724,0.00000113,0.00004653,0.00018566,-0.00041989,0.00011583,0.00001724
 ,-0.00000113,-0.00001964,-0.00031178,-0.00021199,0.10819363,-0.0792242
 8,0.,-0.11268644,0.09157157,-0.02362706,0.01125608,0.00187337,0.001036
 47,-0.00042320,0.00003784,0.00168653,0.00321184,-0.00405460,0.00178992
 ,0.00081324,0.00037826,-0.00168653,-0.00321184,-0.00405460,-0.00178992
 ,-0.00081324,0.00037826,0.02362706,-0.01125608,0.00187337,-0.00103647,
 0.00042320,0.00003784,0.00018837,-0.00022686,-0.00005040,-0.00005337,0
 .00031877,-0.00006567,0.00000861,0.00001377,-0.00004121,-0.00018837,0.
 00022686,-0.00005040,-0.00000861,-0.00001377,-0.00004121,0.00005337,-0
 .00031877,-0.00006567,0.,0.,-0.03855472,0.,0.,0.04218587,0.00231586,0.
 00490597,0.00007600,0.00031553,-0.00039770,0.00026188,-0.00014238,0.00
 099168,-0.00007242,-0.00071415,0.00016743,0.00003563,-0.00014239,0.000
 99168,0.00007242,-0.00071415,0.00016743,-0.00003563,0.00231586,0.00490
 597,-0.00007600,0.00031553,-0.00039770,-0.00026188,-0.00012594,-0.0001
 1805,-0.00017338,0.00000836,0.00008532,-0.00006042,-0.00004174,-0.0000
 0790,0.00000188,-0.00012594,-0.00011805,0.00017338,-0.00004174,-0.0000
 0790,-0.00000188,0.00000836,0.00008532,0.00006042,-0.14959595,-0.13594
 128,0.,-0.01796478,-0.02157357,0.,0.16432968,-0.00914516,-0.01294676,-
 0.00183019,0.00068319,0.00036760,0.00025934,-0.00045164,-0.00105371,0.
 00147361,0.00146323,-0.00033678,-0.00009604,-0.00045164,-0.00105371,-0
 .00147361,0.00146323,-0.00033678,0.00009604,-0.00914516,-0.01294676,0.
 00183019,0.00068319,0.00036760,-0.00025934,0.00005609,0.00004716,0.000
 05994,0.00002592,-0.00002861,0.00000655,0.00000128,0.00000704,-0.00000
 467,0.00005609,0.00004716,-0.00005995,0.00000128,0.00000704,0.00000467
 ,0.00002592,-0.00002861,-0.00000655,-0.14025723,-0.19039008,0.,0.00873
 005,0.00916542,0.,0.14626135,0.20911276,0.01721710,0.01939515,0.002381
 25,-0.00076575,-0.00081572,0.00005640,-0.00264596,0.00247560,-0.004133
 32,-0.00197315,0.00013279,0.00042387,0.00264596,-0.00247560,-0.0041333
 2,0.00197315,-0.00013279,0.00042387,-0.01721710,-0.01939515,0.00238125
 ,0.00076575,0.00081572,0.00005640,-0.00003299,-0.00001597,-0.00001289,
 -0.00006729,0.00003919,0.00000308,0.00001319,-0.00001008,0.00001573,0.
 00003299,0.00001597,-0.00001289,-0.00001319,0.00001008,0.00001573,0.00
 006729,-0.00003919,0.00000308,0.,0.,-0.03939656,0.,0.,0.00021366,0.,0.
 ,0.04171468\\0.00000005,-0.00000030,-0.00000002,0.00000015,-0.00000026
 ,0.,-0.00000023,-0.00000032,0.00000006,-0.00000041,-0.00000041,-0.0000
 0003,-0.00000023,-0.00000032,-0.00000006,-0.00000041,-0.00000041,0.000
 00003,0.00000005,-0.00000030,0.00000002,0.00000015,-0.00000026,0.,-0.0
 0000004,0.00000055,-0.00000002,-0.00000011,0.00000035,0.,0.00000003,0.
 00000075,0.,-0.00000004,0.00000055,0.00000002,0.00000003,0.00000075,0.
 ,-0.00000011,0.00000035,0.,0.00000030,-0.00000032,0.,0.00000037,0.,0.,
 0.00000045,-0.00000038,0.\\\@


0EVERYBODY IS IGNORANT, ONLY ON DIFFERENT SUBJECTS.
0          WILL ROGERS
 Job cpu time:       0 days  0 hours 13 minutes  2.5 seconds.
 File lengths (MBytes):  RWF=     31 Int=      0 D2E=      0 Chk=      4 Scr=      1
 Normal termination of Gaussian 09 at Tue Jun  9 16:12:17 2015.
