 Entering Gaussian System, Link 0=g09
 Initial command:
 /usr/local/research/Gaussian09/g09-revD.01/g09/l1.exe "/scratch/lein/Gau-9813.inp" -scrdir="/scratch/lein/"
 Entering Link 1 = /usr/local/research/Gaussian09/g09-revD.01/g09/l1.exe PID=      9816.
  
 Copyright (c) 1988,1990,1992,1993,1995,1998,2003,2009,2013,
            Gaussian, Inc.  All Rights Reserved.
  
 This is part of the Gaussian(R) 09 program.  It is based on
 the Gaussian(R) 03 system (copyright 2003, Gaussian, Inc.),
 the Gaussian(R) 98 system (copyright 1998, Gaussian, Inc.),
 the Gaussian(R) 94 system (copyright 1995, Gaussian, Inc.),
 the Gaussian 92(TM) system (copyright 1992, Gaussian, Inc.),
 the Gaussian 90(TM) system (copyright 1990, Gaussian, Inc.),
 the Gaussian 88(TM) system (copyright 1988, Gaussian, Inc.),
 the Gaussian 86(TM) system (copyright 1986, Carnegie Mellon
 University), and the Gaussian 82(TM) system (copyright 1983,
 Carnegie Mellon University). Gaussian is a federally registered
 trademark of Gaussian, Inc.
  
 This software contains proprietary and confidential information,
 including trade secrets, belonging to Gaussian, Inc.
  
 This software is provided under written license and may be
 used, copied, transmitted, or stored only in accord with that
 written license.
  
 The following legend is applicable only to US Government
 contracts under FAR:
  
                    RESTRICTED RIGHTS LEGEND
  
 Use, reproduction and disclosure by the US Government is
 subject to restrictions as set forth in subparagraphs (a)
 and (c) of the Commercial Computer Software - Restricted
 Rights clause in FAR 52.227-19.
  
 Gaussian, Inc.
 340 Quinnipiac St., Bldg. 40, Wallingford CT 06492
  
  
 ---------------------------------------------------------------
 Warning -- This program may not be used in any manner that
 competes with the business of Gaussian, Inc. or will provide
 assistance to any competitor of Gaussian, Inc.  The licensee
 of this program is prohibited from giving any competitor of
 Gaussian, Inc. access to this program.  By using this program,
 the user acknowledges that Gaussian, Inc. is engaged in the
 business of creating and licensing software in the field of
 computational chemistry and represents and warrants to the
 licensee that it is not a competitor of Gaussian, Inc. and that
 it will not use this program in any manner prohibited above.
 ---------------------------------------------------------------
  

 Cite this work as:
 Gaussian 09, Revision D.01,
 M. J. Frisch, G. W. Trucks, H. B. Schlegel, G. E. Scuseria, 
 M. A. Robb, J. R. Cheeseman, G. Scalmani, V. Barone, B. Mennucci, 
 G. A. Petersson, H. Nakatsuji, M. Caricato, X. Li, H. P. Hratchian, 
 A. F. Izmaylov, J. Bloino, G. Zheng, J. L. Sonnenberg, M. Hada, 
 M. Ehara, K. Toyota, R. Fukuda, J. Hasegawa, M. Ishida, T. Nakajima, 
 Y. Honda, O. Kitao, H. Nakai, T. Vreven, J. A. Montgomery, Jr., 
 J. E. Peralta, F. Ogliaro, M. Bearpark, J. J. Heyd, E. Brothers, 
 K. N. Kudin, V. N. Staroverov, T. Keith, R. Kobayashi, J. Normand, 
 K. Raghavachari, A. Rendell, J. C. Burant, S. S. Iyengar, J. Tomasi, 
 M. Cossi, N. Rega, J. M. Millam, M. Klene, J. E. Knox, J. B. Cross, 
 V. Bakken, C. Adamo, J. Jaramillo, R. Gomperts, R. E. Stratmann, 
 O. Yazyev, A. J. Austin, R. Cammi, C. Pomelli, J. W. Ochterski, 
 R. L. Martin, K. Morokuma, V. G. Zakrzewski, G. A. Voth, 
 P. Salvador, J. J. Dannenberg, S. Dapprich, A. D. Daniels, 
 O. Farkas, J. B. Foresman, J. V. Ortiz, J. Cioslowski, 
 and D. J. Fox, Gaussian, Inc., Wallingford CT, 2013.
 
 ******************************************
 Gaussian 09:  EM64L-G09RevD.01 24-Apr-2013
                18-Mar-2015 
 ******************************************
 %chk=g09-benzene.chk
 ----------------------------------------------------------------------
 #p pbe1pbe def2svp opt freq pop(hirshfeld) density=current iop(7/33=1)
  iop(6/80=1)
 ----------------------------------------------------------------------
 1/14=-1,18=20,19=15,26=3,38=1/1,3;
 2/9=110,12=2,17=6,18=5,40=1/2;
 3/5=43,7=101,11=2,16=1,25=1,30=1,71=1,74=-13/1,2,3;
 4//1;
 5/5=2,38=5/2;
 6/7=2,8=2,9=2,10=2,22=-1,28=1,79=1,80=1/1;
 7/33=1/1,2,3,16;
 1/14=-1,18=20,19=15,26=3/3(2);
 2/9=110/2;
 99//99;
 2/9=110/2;
 3/5=43,7=101,11=2,16=1,25=1,30=1,71=1,74=-13/1,2,3;
 4/5=5,16=3,69=1/1;
 5/5=2,38=5/2;
 7/33=1/1,2,3,16;
 1/14=-1,18=20,19=15,26=3/3(-5);
 2/9=110/2;
 6/7=2,8=2,9=2,10=2,19=2,22=-1,28=1,79=1,80=1/1;
 99/9=1/99;
 Leave Link    1 at Wed Mar 18 11:34:59 2015, MaxMem=           0 cpu:         0.0
 (Enter /usr/local/research/Gaussian09/g09-revD.01/g09/l101.exe)
 -------------
 -- Benzene --
 -------------
 Symbolic Z-matrix:
 Charge =  0 Multiplicity = 1
 C                     0.        1.39499   0. 
 C                    -1.2081    0.6975    0. 
 C                    -1.2081   -0.6975    0. 
 C                     0.       -1.39499   0. 
 C                     1.2081   -0.6975    0. 
 C                     1.2081    0.6975    0. 
 H                     0.        2.4946    0. 
 H                    -2.16039   1.2473    0. 
 H                    -2.16039  -1.2473    0. 
 H                     0.       -2.4946    0. 
 H                     2.16039  -1.2473    0. 
 H                     2.16039   1.2473    0. 
 
 NAtoms=     12 NQM=       12 NQMF=       0 NMMI=      0 NMMIF=      0
                NMic=       0 NMicF=      0.
                    Isotopes and Nuclear Properties:
 (Nuclear quadrupole moments (NQMom) in fm**2, nuclear magnetic moments (NMagM)
  in nuclear magnetons)

  Atom         1           2           3           4           5           6           7           8           9          10
 IAtWgt=          12          12          12          12          12          12           1           1           1           1
 AtmWgt=  12.0000000  12.0000000  12.0000000  12.0000000  12.0000000  12.0000000   1.0078250   1.0078250   1.0078250   1.0078250
 NucSpn=           0           0           0           0           0           0           1           1           1           1
 AtZEff=   0.0000000   0.0000000   0.0000000   0.0000000   0.0000000   0.0000000   0.0000000   0.0000000   0.0000000   0.0000000
 NQMom=    0.0000000   0.0000000   0.0000000   0.0000000   0.0000000   0.0000000   0.0000000   0.0000000   0.0000000   0.0000000
 NMagM=    0.0000000   0.0000000   0.0000000   0.0000000   0.0000000   0.0000000   2.7928460   2.7928460   2.7928460   2.7928460
 AtZNuc=   6.0000000   6.0000000   6.0000000   6.0000000   6.0000000   6.0000000   1.0000000   1.0000000   1.0000000   1.0000000

  Atom        11          12
 IAtWgt=           1           1
 AtmWgt=   1.0078250   1.0078250
 NucSpn=           1           1
 AtZEff=   0.0000000   0.0000000
 NQMom=    0.0000000   0.0000000
 NMagM=    2.7928460   2.7928460
 AtZNuc=   1.0000000   1.0000000
 Leave Link  101 at Wed Mar 18 11:34:59 2015, MaxMem=    33554432 cpu:         0.2
 (Enter /usr/local/research/Gaussian09/g09-revD.01/g09/l103.exe)

 GradGradGradGradGradGradGradGradGradGradGradGradGradGradGradGradGradGrad
 Berny optimization.
 Initialization pass.
                           ----------------------------
                           !    Initial Parameters    !
                           ! (Angstroms and Degrees)  !
 --------------------------                            --------------------------
 ! Name  Definition              Value          Derivative Info.                !
 --------------------------------------------------------------------------------
 ! R1    R(1,2)                  1.395          estimate D2E/DX2                !
 ! R2    R(1,6)                  1.395          estimate D2E/DX2                !
 ! R3    R(1,7)                  1.0996         estimate D2E/DX2                !
 ! R4    R(2,3)                  1.395          estimate D2E/DX2                !
 ! R5    R(2,8)                  1.0996         estimate D2E/DX2                !
 ! R6    R(3,4)                  1.395          estimate D2E/DX2                !
 ! R7    R(3,9)                  1.0996         estimate D2E/DX2                !
 ! R8    R(4,5)                  1.395          estimate D2E/DX2                !
 ! R9    R(4,10)                 1.0996         estimate D2E/DX2                !
 ! R10   R(5,6)                  1.395          estimate D2E/DX2                !
 ! R11   R(5,11)                 1.0996         estimate D2E/DX2                !
 ! R12   R(6,12)                 1.0996         estimate D2E/DX2                !
 ! A1    A(2,1,6)              120.0            estimate D2E/DX2                !
 ! A2    A(2,1,7)              120.0            estimate D2E/DX2                !
 ! A3    A(6,1,7)              120.0            estimate D2E/DX2                !
 ! A4    A(1,2,3)              120.0            estimate D2E/DX2                !
 ! A5    A(1,2,8)              120.0            estimate D2E/DX2                !
 ! A6    A(3,2,8)              120.0            estimate D2E/DX2                !
 ! A7    A(2,3,4)              120.0            estimate D2E/DX2                !
 ! A8    A(2,3,9)              120.0            estimate D2E/DX2                !
 ! A9    A(4,3,9)              120.0            estimate D2E/DX2                !
 ! A10   A(3,4,5)              120.0            estimate D2E/DX2                !
 ! A11   A(3,4,10)             120.0            estimate D2E/DX2                !
 ! A12   A(5,4,10)             120.0            estimate D2E/DX2                !
 ! A13   A(4,5,6)              120.0            estimate D2E/DX2                !
 ! A14   A(4,5,11)             120.0            estimate D2E/DX2                !
 ! A15   A(6,5,11)             120.0            estimate D2E/DX2                !
 ! A16   A(1,6,5)              120.0            estimate D2E/DX2                !
 ! A17   A(1,6,12)             120.0            estimate D2E/DX2                !
 ! A18   A(5,6,12)             120.0            estimate D2E/DX2                !
 ! D1    D(6,1,2,3)              0.0            estimate D2E/DX2                !
 ! D2    D(6,1,2,8)            180.0            estimate D2E/DX2                !
 ! D3    D(7,1,2,3)            180.0            estimate D2E/DX2                !
 ! D4    D(7,1,2,8)              0.0            estimate D2E/DX2                !
 ! D5    D(2,1,6,5)              0.0            estimate D2E/DX2                !
 ! D6    D(2,1,6,12)           180.0            estimate D2E/DX2                !
 ! D7    D(7,1,6,5)            180.0            estimate D2E/DX2                !
 ! D8    D(7,1,6,12)             0.0            estimate D2E/DX2                !
 ! D9    D(1,2,3,4)              0.0            estimate D2E/DX2                !
 ! D10   D(1,2,3,9)            180.0            estimate D2E/DX2                !
 ! D11   D(8,2,3,4)            180.0            estimate D2E/DX2                !
 ! D12   D(8,2,3,9)              0.0            estimate D2E/DX2                !
 ! D13   D(2,3,4,5)              0.0            estimate D2E/DX2                !
 ! D14   D(2,3,4,10)           180.0            estimate D2E/DX2                !
 ! D15   D(9,3,4,5)            180.0            estimate D2E/DX2                !
 ! D16   D(9,3,4,10)             0.0            estimate D2E/DX2                !
 ! D17   D(3,4,5,6)              0.0            estimate D2E/DX2                !
 ! D18   D(3,4,5,11)           180.0            estimate D2E/DX2                !
 ! D19   D(10,4,5,6)           180.0            estimate D2E/DX2                !
 ! D20   D(10,4,5,11)            0.0            estimate D2E/DX2                !
 ! D21   D(4,5,6,1)              0.0            estimate D2E/DX2                !
 ! D22   D(4,5,6,12)           180.0            estimate D2E/DX2                !
 ! D23   D(11,5,6,1)           180.0            estimate D2E/DX2                !
 ! D24   D(11,5,6,12)            0.0            estimate D2E/DX2                !
 --------------------------------------------------------------------------------
 Trust Radius=3.00D-01 FncErr=1.00D-07 GrdErr=1.00D-06
 Number of steps in this run=     64 maximum allowed number of steps=    100.
 GradGradGradGradGradGradGradGradGradGradGradGradGradGradGradGradGradGrad

 Leave Link  103 at Wed Mar 18 11:34:59 2015, MaxMem=    33554432 cpu:         0.0
 (Enter /usr/local/research/Gaussian09/g09-revD.01/g09/l202.exe)
                          Input orientation:                          
 ---------------------------------------------------------------------
 Center     Atomic      Atomic             Coordinates (Angstroms)
 Number     Number       Type             X           Y           Z
 ---------------------------------------------------------------------
      1          6           0        0.000000    1.394991    0.000000
      2          6           0       -1.208097    0.697495    0.000000
      3          6           0       -1.208097   -0.697495    0.000000
      4          6           0        0.000000   -1.394991    0.000000
      5          6           0        1.208097   -0.697495    0.000000
      6          6           0        1.208097    0.697495    0.000000
      7          1           0        0.000000    2.494601    0.000000
      8          1           0       -2.160388    1.247300    0.000000
      9          1           0       -2.160388   -1.247300    0.000000
     10          1           0        0.000000   -2.494601    0.000000
     11          1           0        2.160388   -1.247300    0.000000
     12          1           0        2.160388    1.247300    0.000000
 ---------------------------------------------------------------------
                    Distance matrix (angstroms):
                    1          2          3          4          5
     1  C    0.000000
     2  C    1.394991   0.000000
     3  C    2.416195   1.394991   0.000000
     4  C    2.789981   2.416195   1.394991   0.000000
     5  C    2.416195   2.789981   2.416195   1.394991   0.000000
     6  C    1.394991   2.416195   2.789981   2.416195   1.394991
     7  H    1.099610   2.165430   3.413060   3.889592   3.413060
     8  H    2.165430   1.099610   2.165430   3.413060   3.889592
     9  H    3.413060   2.165430   1.099610   2.165430   3.413060
    10  H    3.889592   3.413060   2.165430   1.099610   2.165430
    11  H    3.413060   3.889592   3.413060   2.165430   1.099610
    12  H    2.165430   3.413060   3.889592   3.413060   2.165430
                    6          7          8          9         10
     6  C    0.000000
     7  H    2.165430   0.000000
     8  H    3.413060   2.494601   0.000000
     9  H    3.889592   4.320776   2.494601   0.000000
    10  H    3.413060   4.989202   4.320776   2.494601   0.000000
    11  H    2.165430   4.320776   4.989202   4.320776   2.494601
    12  H    1.099610   2.494601   4.320776   4.989202   4.320776
                   11         12
    11  H    0.000000
    12  H    2.494601   0.000000
 Stoichiometry    C6H6
 Framework group  D6H[3C2'(HC.CH)]
 Deg. of freedom     2
 Full point group                 D6H     NOp  24
 Largest Abelian subgroup         D2H     NOp   8
 Largest concise Abelian subgroup D2      NOp   4
                         Standard orientation:                         
 ---------------------------------------------------------------------
 Center     Atomic      Atomic             Coordinates (Angstroms)
 Number     Number       Type             X           Y           Z
 ---------------------------------------------------------------------
      1          6           0        0.000000    1.394991    0.000000
      2          6           0        1.208097    0.697495    0.000000
      3          6           0        1.208097   -0.697495    0.000000
      4          6           0        0.000000   -1.394991    0.000000
      5          6           0       -1.208097   -0.697495    0.000000
      6          6           0       -1.208097    0.697495    0.000000
      7          1           0        0.000000    2.494601    0.000000
      8          1           0        2.160388    1.247300    0.000000
      9          1           0        2.160388   -1.247300    0.000000
     10          1           0        0.000000   -2.494601    0.000000
     11          1           0       -2.160388   -1.247300    0.000000
     12          1           0       -2.160388    1.247300    0.000000
 ---------------------------------------------------------------------
 Rotational constants (GHZ):      5.6866486      5.6866486      2.8433243
 Leave Link  202 at Wed Mar 18 11:34:59 2015, MaxMem=    33554432 cpu:         0.0
 (Enter /usr/local/research/Gaussian09/g09-revD.01/g09/l301.exe)
 Standard basis: def2SVP (5D, 7F)
 Ernie: Thresh=  0.10000D-02 Tol=  0.10000D-05 Strict=F.
 There are    26 symmetry adapted cartesian basis functions of AG  symmetry.
 There are    19 symmetry adapted cartesian basis functions of B1G symmetry.
 There are     6 symmetry adapted cartesian basis functions of B2G symmetry.
 There are     9 symmetry adapted cartesian basis functions of B3G symmetry.
 There are     6 symmetry adapted cartesian basis functions of AU  symmetry.
 There are     9 symmetry adapted cartesian basis functions of B1U symmetry.
 There are    26 symmetry adapted cartesian basis functions of B2U symmetry.
 There are    19 symmetry adapted cartesian basis functions of B3U symmetry.
 There are    24 symmetry adapted basis functions of AG  symmetry.
 There are    18 symmetry adapted basis functions of B1G symmetry.
 There are     6 symmetry adapted basis functions of B2G symmetry.
 There are     9 symmetry adapted basis functions of B3G symmetry.
 There are     6 symmetry adapted basis functions of AU  symmetry.
 There are     9 symmetry adapted basis functions of B1U symmetry.
 There are    24 symmetry adapted basis functions of B2U symmetry.
 There are    18 symmetry adapted basis functions of B3U symmetry.
   114 basis functions,   192 primitive gaussians,   120 cartesian basis functions
    21 alpha electrons       21 beta electrons
       nuclear repulsion energy       203.0352978423 Hartrees.
 IExCor= 1009 DFT=T Ex+Corr=PBE1PBE ExCW=0 ScaHFX=  0.250000
 ScaDFX=  0.750000  0.750000  1.000000  1.000000 ScalE2=  1.000000  1.000000
 IRadAn=      0 IRanWt=     -1 IRanGd=            0 ICorTp=0 IEmpDi=  4
 NAtoms=   12 NActive=   12 NUniq=    2 SFac= 4.00D+00 NAtFMM=   60 NAOKFM=F Big=F
 Integral buffers will be    131072 words long.
 Raffenetti 2 integral format.
 Two-electron integral symmetry is turned on.
 Leave Link  301 at Wed Mar 18 11:34:59 2015, MaxMem=    33554432 cpu:         0.1
 (Enter /usr/local/research/Gaussian09/g09-revD.01/g09/l302.exe)
 NPDir=0 NMtPBC=     1 NCelOv=     1 NCel=       1 NClECP=     1 NCelD=      1
         NCelK=      1 NCelE2=     1 NClLst=     1 CellRange=     0.0.
 One-electron integrals computed using PRISM.
 One-electron integral symmetry used in STVInt
  24 Symmetry operations used in ECPInt.
 ECPInt:  NShTT=    1485 NPrTT=    5349 LenC2=    1486 LenP2D=    4578.
 LDataN:  DoStor=T MaxTD1= 4 Len=   56
 NBasis=   114 RedAO= T EigKep=  2.67D-04  NBF=    24    18     6     9     6     9    24    18
 NBsUse=   114 1.00D-06 EigRej= -1.00D+00 NBFU=    24    18     6     9     6     9    24    18
 Precomputing XC quadrature grid using
 IXCGrd= 4 IRadAn=           0 IRanWt=          -1 IRanGd=           0 AccXCQ= 0.00D+00.
 Generated NRdTot=       0 NPtTot=           0 NUsed=           0 NTot=          32
 NSgBfM=   120   120   120   120   120 MxSgAt=    12 MxSgA2=    12.
 Leave Link  302 at Wed Mar 18 11:35:00 2015, MaxMem=    33554432 cpu:         0.5
 (Enter /usr/local/research/Gaussian09/g09-revD.01/g09/l303.exe)
 DipDrv:  MaxL=1.
 Leave Link  303 at Wed Mar 18 11:35:00 2015, MaxMem=    33554432 cpu:         0.1
 (Enter /usr/local/research/Gaussian09/g09-revD.01/g09/l401.exe)
 ExpMin= 1.22D-01 ExpMax= 1.24D+03 ExpMxC= 1.86D+02 IAcc=1 IRadAn=         1 AccDes= 0.00D+00
 Harris functional with IExCor= 1009 and IRadAn=       1 diagonalized for initial guess.
 HarFok:  IExCor= 1009 AccDes= 0.00D+00 IRadAn=         1 IDoV= 1 UseB2=F ITyADJ=14
 ICtDFT=  3500011 ScaDFX=  1.000000  1.000000  1.000000  1.000000
 FoFCou: FMM=F IPFlag=           0 FMFlag=      100000 FMFlg1=           0
         NFxFlg=           0 DoJE=T BraDBF=F KetDBF=T FulRan=T
         wScrn=  0.000000 ICntrl=     500 IOpCl=  0 I1Cent=   200000004 NGrid=           0
         NMat0=    1 NMatS0=      1 NMatT0=    0 NMatD0=    1 NMtDS0=    0 NMtDT0=    0
 Petite list used in FoFCou.
 Harris En= -231.883894239986    
 JPrj=0 DoOrth=F DoCkMO=F.
 Initial guess orbital symmetries:
       Occupied  (A1G) (E1U) (E1U) (B1U) (E2G) (E2G) (A1G) (E1U)
                 (E1U) (E2G) (E2G) (A1G) (B2U) (B1U) (E1U) (E1U)
                 (A2U) (E2G) (E2G) (E1G) (E1G)
       Virtual   (E2U) (E2U) (A1G) (B2G) (E1U) (E1U) (E2G) (E2G)
                 (B1U) (E2G) (E2G) (E1U) (E1U) (A1G) (B2U) (A1G)
                 (E1U) (E1U) (B1U) (A2U) (E2G) (E2G) (A2G) (E1G)
                 (E1G) (E2U) (E2U) (E1U) (E1U) (E2G) (E2G) (B2G)
                 (B1U) (A1G) (E2G) (E2G) (E1U) (E1U) (B1U) (A2G)
                 (E1U) (E1U) (A2U) (B1G) (E1G) (E1G) (E2U) (E2U)
                 (E2G) (E2G) (B1U) (A1G) (B2U) (B2G) (A1G) (E1U)
                 (E1U) (E2U) (E2U) (E2G) (E2G) (E1U) (E1U) (A2U)
                 (B2U) (E2G) (E2G) (E1G) (E1G) (B1U) (E1U) (E1U)
                 (A2G) (E2G) (E2G) (E1G) (E1G) (E2U) (E2U) (B2G)
                 (E2G) (E2G) (A1U) (E1U) (E1U) (A1G) (E1U) (E1U)
                 (B1U) (E2G) (E2G) (A2G) (B1U)
 The electronic state of the initial guess is 1-A1G.
 Leave Link  401 at Wed Mar 18 11:35:00 2015, MaxMem=    33554432 cpu:         0.4
 (Enter /usr/local/research/Gaussian09/g09-revD.01/g09/l502.exe)
 Closed shell SCF:
 Using DIIS extrapolation, IDIIS=  1040.
 Integral symmetry usage will be decided dynamically.
 Keep R1 ints in memory in symmetry-blocked form, NReq=24406346.
 IVT=       64994 IEndB=       64994 NGot=    33554432 MDV=    30635491
 LenX=    30635491 LenY=    30620650
 Requested convergence on RMS density matrix=1.00D-08 within 128 cycles.
 Requested convergence on MAX density matrix=1.00D-06.
 Requested convergence on             energy=1.00D-06.
 No special actions if energy rises.
 FoFCou: FMM=F IPFlag=           0 FMFlag=           0 FMFlg1=           0
         NFxFlg=           0 DoJE=F BraDBF=F KetDBF=F FulRan=T
         wScrn=  0.000000 ICntrl=     600 IOpCl=  0 I1Cent=           0 NGrid=           0
         NMat0=    1 NMatS0=   6555 NMatT0=    0 NMatD0=    1 NMtDS0=    0 NMtDT0=    0
 Petite list used in FoFCou.
 Integral accuracy reduced to 1.0D-05 until final iterations.

 Cycle   1  Pass 0  IDiag  1:
 E= -231.674632703140    
 DIIS: error= 3.00D-02 at cycle   1 NSaved=   1.
 NSaved= 1 IEnMin= 1 EnMin= -231.674632703140     IErMin= 1 ErrMin= 3.00D-02
 ErrMax= 3.00D-02  0.00D+00 EMaxC= 1.00D-01 BMatC= 1.02D-01 BMatP= 1.02D-01
 IDIUse=3 WtCom= 7.00D-01 WtEn= 3.00D-01
 Coeff-Com:  0.100D+01
 Coeff-En:   0.100D+01
 Coeff:      0.100D+01
 Gap=     0.263 Goal=   None    Shift=    0.000
 GapD=    0.263 DampG=1.000 DampE=0.500 DampFc=0.5000 IDamp=-1.
 Damping current iteration by 5.00D-01
 RMSDP=7.77D-03 MaxDP=8.47D-02              OVMax= 1.41D-01

 Cycle   2  Pass 0  IDiag  1:
 E= -231.736599786981     Delta-E=       -0.061967083841 Rises=F Damp=T
 DIIS: error= 4.90D-03 at cycle   2 NSaved=   2.
 NSaved= 2 IEnMin= 2 EnMin= -231.736599786981     IErMin= 2 ErrMin= 4.90D-03
 ErrMax= 4.90D-03  0.00D+00 EMaxC= 1.00D-01 BMatC= 4.47D-03 BMatP= 1.02D-01
 IDIUse=3 WtCom= 9.51D-01 WtEn= 4.90D-02
 Coeff-Com: -0.406D-02 0.100D+01
 Coeff-En:   0.000D+00 0.100D+01
 Coeff:     -0.386D-02 0.100D+01
 Gap=     0.267 Goal=   None    Shift=    0.000
 RMSDP=1.92D-03 MaxDP=1.64D-02 DE=-6.20D-02 OVMax= 7.77D-02

 Cycle   3  Pass 0  IDiag  1:
 E= -231.801408442732     Delta-E=       -0.064808655751 Rises=F Damp=F
 DIIS: error= 3.08D-03 at cycle   3 NSaved=   3.
 NSaved= 3 IEnMin= 3 EnMin= -231.801408442732     IErMin= 3 ErrMin= 3.08D-03
 ErrMax= 3.08D-03  0.00D+00 EMaxC= 1.00D-01 BMatC= 6.31D-04 BMatP= 4.47D-03
 IDIUse=3 WtCom= 9.69D-01 WtEn= 3.08D-02
 Coeff-Com: -0.335D-01 0.238D+00 0.795D+00
 Coeff-En:   0.000D+00 0.000D+00 0.100D+01
 Coeff:     -0.325D-01 0.231D+00 0.802D+00
 Gap=     0.263 Goal=   None    Shift=    0.000
 RMSDP=4.43D-04 MaxDP=5.96D-03 DE=-6.48D-02 OVMax= 5.46D-03

 Cycle   4  Pass 0  IDiag  1:
 E= -231.801955781374     Delta-E=       -0.000547338642 Rises=F Damp=F
 DIIS: error= 3.22D-04 at cycle   4 NSaved=   4.
 NSaved= 4 IEnMin= 4 EnMin= -231.801955781374     IErMin= 4 ErrMin= 3.22D-04
 ErrMax= 3.22D-04  0.00D+00 EMaxC= 1.00D-01 BMatC= 1.37D-05 BMatP= 6.31D-04
 IDIUse=3 WtCom= 9.97D-01 WtEn= 3.22D-03
 Coeff-Com: -0.746D-02 0.136D-01 0.151D+00 0.843D+00
 Coeff-En:   0.000D+00 0.000D+00 0.000D+00 0.100D+01
 Coeff:     -0.744D-02 0.136D-01 0.150D+00 0.844D+00
 Gap=     0.264 Goal=   None    Shift=    0.000
 RMSDP=3.92D-05 MaxDP=3.23D-04 DE=-5.47D-04 OVMax= 6.75D-04

 Cycle   5  Pass 0  IDiag  1:
 E= -231.801968717485     Delta-E=       -0.000012936111 Rises=F Damp=F
 DIIS: error= 8.68D-06 at cycle   5 NSaved=   5.
 NSaved= 5 IEnMin= 5 EnMin= -231.801968717485     IErMin= 5 ErrMin= 8.68D-06
 ErrMax= 8.68D-06  0.00D+00 EMaxC= 1.00D-01 BMatC= 1.22D-08 BMatP= 1.37D-05
 IDIUse=1 WtCom= 1.00D+00 WtEn= 0.00D+00
 Coeff-Com: -0.235D-03-0.435D-03 0.256D-02 0.351D-01 0.963D+00
 Coeff:     -0.235D-03-0.435D-03 0.256D-02 0.351D-01 0.963D+00
 Gap=     0.264 Goal=   None    Shift=    0.000
 RMSDP=3.20D-06 MaxDP=2.71D-05 DE=-1.29D-05 OVMax= 2.62D-05

 Initial convergence to 1.0D-05 achieved.  Increase integral accuracy.
 Cycle   6  Pass 1  IDiag  1:
 E= -231.801893410378     Delta-E=        0.000075307107 Rises=F Damp=F
 DIIS: error= 6.19D-05 at cycle   1 NSaved=   1.
 NSaved= 1 IEnMin= 1 EnMin= -231.801893410378     IErMin= 1 ErrMin= 6.19D-05
 ErrMax= 6.19D-05  0.00D+00 EMaxC= 1.00D-01 BMatC= 8.78D-08 BMatP= 8.78D-08
 IDIUse=1 WtCom= 1.00D+00 WtEn= 0.00D+00
 Coeff-Com:  0.100D+01
 Coeff:      0.100D+01
 Gap=     0.264 Goal=   None    Shift=    0.000
 RMSDP=3.20D-06 MaxDP=2.71D-05 DE= 7.53D-05 OVMax= 1.76D-04

 Cycle   7  Pass 1  IDiag  1:
 E= -231.801893543257     Delta-E=       -0.000000132879 Rises=F Damp=F
 DIIS: error= 3.66D-06 at cycle   2 NSaved=   2.
 NSaved= 2 IEnMin= 2 EnMin= -231.801893543257     IErMin= 2 ErrMin= 3.66D-06
 ErrMax= 3.66D-06  0.00D+00 EMaxC= 1.00D-01 BMatC= 8.27D-10 BMatP= 8.78D-08
 IDIUse=1 WtCom= 1.00D+00 WtEn= 0.00D+00
 Coeff-Com: -0.534D-01 0.105D+01
 Coeff:     -0.534D-01 0.105D+01
 Gap=     0.264 Goal=   None    Shift=    0.000
 RMSDP=8.70D-07 MaxDP=1.02D-05 DE=-1.33D-07 OVMax= 1.09D-05

 Cycle   8  Pass 1  IDiag  1:
 E= -231.801893544216     Delta-E=       -0.000000000958 Rises=F Damp=F
 DIIS: error= 1.51D-06 at cycle   3 NSaved=   3.
 NSaved= 3 IEnMin= 3 EnMin= -231.801893544216     IErMin= 3 ErrMin= 1.51D-06
 ErrMax= 1.51D-06  0.00D+00 EMaxC= 1.00D-01 BMatC= 1.69D-10 BMatP= 8.27D-10
 IDIUse=1 WtCom= 1.00D+00 WtEn= 0.00D+00
 Coeff-Com: -0.219D-01 0.347D+00 0.675D+00
 Coeff:     -0.219D-01 0.347D+00 0.675D+00
 Gap=     0.264 Goal=   None    Shift=    0.000
 RMSDP=1.80D-07 MaxDP=2.15D-06 DE=-9.58D-10 OVMax= 2.93D-06

 Cycle   9  Pass 1  IDiag  1:
 E= -231.801893544353     Delta-E=       -0.000000000137 Rises=F Damp=F
 DIIS: error= 2.61D-07 at cycle   4 NSaved=   4.
 NSaved= 4 IEnMin= 4 EnMin= -231.801893544353     IErMin= 4 ErrMin= 2.61D-07
 ErrMax= 2.61D-07  0.00D+00 EMaxC= 1.00D-01 BMatC= 1.02D-11 BMatP= 1.69D-10
 IDIUse=1 WtCom= 1.00D+00 WtEn= 0.00D+00
 Coeff-Com: -0.586D-02 0.779D-01 0.233D+00 0.695D+00
 Coeff:     -0.586D-02 0.779D-01 0.233D+00 0.695D+00
 Gap=     0.264 Goal=   None    Shift=    0.000
 RMSDP=4.04D-08 MaxDP=5.37D-07 DE=-1.37D-10 OVMax= 9.79D-07

 Cycle  10  Pass 1  IDiag  1:
 E= -231.801893544365     Delta-E=       -0.000000000012 Rises=F Damp=F
 DIIS: error= 7.63D-08 at cycle   5 NSaved=   5.
 NSaved= 5 IEnMin= 5 EnMin= -231.801893544365     IErMin= 5 ErrMin= 7.63D-08
 ErrMax= 7.63D-08  0.00D+00 EMaxC= 1.00D-01 BMatC= 7.96D-13 BMatP= 1.02D-11
 IDIUse=1 WtCom= 1.00D+00 WtEn= 0.00D+00
 Coeff-Com: -0.163D-03-0.113D-02 0.103D-01 0.236D+00 0.755D+00
 Coeff:     -0.163D-03-0.113D-02 0.103D-01 0.236D+00 0.755D+00
 Gap=     0.264 Goal=   None    Shift=    0.000
 RMSDP=8.77D-09 MaxDP=1.15D-07 DE=-1.19D-11 OVMax= 1.91D-07

 SCF Done:  E(RPBE1PBE) =  -231.801893544     A.U. after   10 cycles
            NFock= 10  Conv=0.88D-08     -V/T= 2.0113
 KE= 2.292215773011D+02 PE=-9.421715762200D+02 EE= 2.781128075322D+02
 Leave Link  502 at Wed Mar 18 11:35:05 2015, MaxMem=    33554432 cpu:         4.8
 (Enter /usr/local/research/Gaussian09/g09-revD.01/g09/l601.exe)
 Copying SCF densities to generalized density rwf, IOpCl= 0 IROHF=0.

 **********************************************************************

            Population analysis using the SCF density.

 **********************************************************************

 Orbital symmetries:
       Occupied  (A1G) (E1U) (E1U) (E2G) (E2G) (B1U) (A1G) (E1U)
                 (E1U) (E2G) (E2G) (A1G) (B1U) (B2U) (E1U) (E1U)
                 (A2U) (E2G) (E2G) (E1G) (E1G)
       Virtual   (E2U) (E2U) (A1G) (E1U) (E1U) (E2G) (E2G) (B2G)
                 (B1U) (E2G) (E2G) (E1U) (E1U) (A1G) (B2U) (E1U)
                 (E1U) (A1G) (B1U) (A2U) (E2G) (E2G) (A2G) (E1G)
                 (E1G) (E2U) (E2U) (E1U) (E1U) (E2G) (E2G) (B2G)
                 (E2G) (E2G) (A1G) (B1U) (E1U) (E1U) (B1U) (A2G)
                 (E1U) (E1U) (A2U) (E1G) (E1G) (B1G) (E2G) (E2G)
                 (E2U) (E2U) (B1U) (A1G) (B2U) (B2G) (A1G) (E1U)
                 (E1U) (E2U) (E2U) (E2G) (E2G) (E1U) (E1U) (A2U)
                 (E1G) (E1G) (B2U) (E2G) (E2G) (A2G) (B1U) (E1U)
                 (E1U) (E1G) (E1G) (E2G) (E2G) (E2U) (E2U) (B2G)
                 (E2G) (E2G) (A1U) (A1G) (E1U) (E1U) (E1U) (E1U)
                 (B1U) (E2G) (E2G) (A2G) (B1U)
 The electronic state is 1-A1G.
 Alpha  occ. eigenvalues --  -10.24018 -10.23999 -10.23999 -10.23952 -10.23952
 Alpha  occ. eigenvalues --  -10.23936  -0.87314  -0.76043  -0.76043  -0.61451
 Alpha  occ. eigenvalues --   -0.61451  -0.53672  -0.46684  -0.46353  -0.43308
 Alpha  occ. eigenvalues --   -0.43308  -0.38400  -0.35476  -0.35476  -0.26695
 Alpha  occ. eigenvalues --   -0.26695
 Alpha virt. eigenvalues --   -0.00330  -0.00330   0.06683   0.11088   0.11088
 Alpha virt. eigenvalues --    0.14997   0.14997   0.15994   0.17097   0.29596
 Alpha virt. eigenvalues --    0.29596   0.30871   0.30871   0.37678   0.42068
 Alpha virt. eigenvalues --    0.43151   0.43151   0.44551   0.47527   0.48935
 Alpha virt. eigenvalues --    0.51786   0.51786   0.55418   0.55770   0.55770
 Alpha virt. eigenvalues --    0.62289   0.62289   0.64966   0.64966   0.68608
 Alpha virt. eigenvalues --    0.68608   0.69491   0.74496   0.74496   0.75641
 Alpha virt. eigenvalues --    0.75790   0.79568   0.79568   0.85538   0.91971
 Alpha virt. eigenvalues --    1.03945   1.03945   1.15968   1.25164   1.25164
 Alpha virt. eigenvalues --    1.25554   1.28487   1.28487   1.31318   1.31318
 Alpha virt. eigenvalues --    1.53938   1.64379   1.66024   1.67831   1.75104
 Alpha virt. eigenvalues --    1.75256   1.75256   1.76412   1.76412   1.77022
 Alpha virt. eigenvalues --    1.77022   1.83762   1.83762   1.93234   1.98461
 Alpha virt. eigenvalues --    1.98461   1.98642   1.98998   1.98998   2.12879
 Alpha virt. eigenvalues --    2.14324   2.15452   2.15452   2.31181   2.31181
 Alpha virt. eigenvalues --    2.32283   2.32283   2.35400   2.35400   2.56448
 Alpha virt. eigenvalues --    2.61556   2.61556   2.66112   2.72837   2.73102
 Alpha virt. eigenvalues --    2.73102   2.87677   2.87677   2.90289   3.13324
 Alpha virt. eigenvalues --    3.13324   3.25891   3.67789
          Condensed to atoms (all electrons):
               1          2          3          4          5          6
     1  C    5.042180   0.324788   0.062644  -0.127479   0.062644   0.324788
     2  C    0.324788   5.042180   0.324788   0.062644  -0.127479   0.062644
     3  C    0.062644   0.324788   5.042180   0.324788   0.062644  -0.127479
     4  C   -0.127479   0.062644   0.324788   5.042180   0.324788   0.062644
     5  C    0.062644  -0.127479   0.062644   0.324788   5.042180   0.324788
     6  C    0.324788   0.062644  -0.127479   0.062644   0.324788   5.042180
     7  H    0.439744  -0.063831   0.012857  -0.001444   0.012857  -0.063831
     8  H   -0.063831   0.439744  -0.063831   0.012857  -0.001444   0.012857
     9  H    0.012857  -0.063831   0.439744  -0.063831   0.012857  -0.001444
    10  H   -0.001444   0.012857  -0.063831   0.439744  -0.063831   0.012857
    11  H    0.012857  -0.001444   0.012857  -0.063831   0.439744  -0.063831
    12  H   -0.063831   0.012857  -0.001444   0.012857  -0.063831   0.439744
               7          8          9         10         11         12
     1  C    0.439744  -0.063831   0.012857  -0.001444   0.012857  -0.063831
     2  C   -0.063831   0.439744  -0.063831   0.012857  -0.001444   0.012857
     3  C    0.012857  -0.063831   0.439744  -0.063831   0.012857  -0.001444
     4  C   -0.001444   0.012857  -0.063831   0.439744  -0.063831   0.012857
     5  C    0.012857  -0.001444   0.012857  -0.063831   0.439744  -0.063831
     6  C   -0.063831   0.012857  -0.001444   0.012857  -0.063831   0.439744
     7  H    0.661320  -0.011550  -0.000260   0.000033  -0.000260  -0.011550
     8  H   -0.011550   0.661320  -0.011550  -0.000260   0.000033  -0.000260
     9  H   -0.000260  -0.011550   0.661320  -0.011550  -0.000260   0.000033
    10  H    0.000033  -0.000260  -0.011550   0.661320  -0.011550  -0.000260
    11  H   -0.000260   0.000033  -0.000260  -0.011550   0.661320  -0.011550
    12  H   -0.011550  -0.000260   0.000033  -0.000260  -0.011550   0.661320
 Mulliken charges:
               1
     1  C   -0.025916
     2  C   -0.025916
     3  C   -0.025916
     4  C   -0.025916
     5  C   -0.025916
     6  C   -0.025916
     7  H    0.025916
     8  H    0.025916
     9  H    0.025916
    10  H    0.025916
    11  H    0.025916
    12  H    0.025916
 Sum of Mulliken charges =   0.00000
 Mulliken charges with hydrogens summed into heavy atoms:
               1
     1  C    0.000000
     2  C    0.000000
     3  C    0.000000
     4  C    0.000000
     5  C    0.000000
     6  C    0.000000
 Atomic Valencies and Mayer Atomic Bond Orders:
               1          2          3          4          5          6
     1  C    3.869480   1.402042  -0.000535   0.090750  -0.000535   1.402042
     2  C    1.402042   3.869480   1.402042  -0.000535   0.090750  -0.000535
     3  C   -0.000535   1.402042   3.869480   1.402042  -0.000535   0.090750
     4  C    0.090750  -0.000535   1.402042   3.869480   1.402042  -0.000535
     5  C   -0.000535   0.090750  -0.000535   1.402042   3.869480   1.402042
     6  C    1.402042  -0.000535   0.090750  -0.000535   1.402042   3.869480
     7  H    0.982952  -0.011874   0.007779   0.000955   0.007779  -0.011874
     8  H   -0.011874   0.982952  -0.011874   0.007779   0.000955   0.007779
     9  H    0.007779  -0.011874   0.982952  -0.011874   0.007779   0.000955
    10  H    0.000955   0.007779  -0.011874   0.982952  -0.011874   0.007779
    11  H    0.007779   0.000955   0.007779  -0.011874   0.982952  -0.011874
    12  H   -0.011874   0.007779   0.000955   0.007779  -0.011874   0.982952
               7          8          9         10         11         12
     1  C    0.982952  -0.011874   0.007779   0.000955   0.007779  -0.011874
     2  C   -0.011874   0.982952  -0.011874   0.007779   0.000955   0.007779
     3  C    0.007779  -0.011874   0.982952  -0.011874   0.007779   0.000955
     4  C    0.000955   0.007779  -0.011874   0.982952  -0.011874   0.007779
     5  C    0.007779   0.000955   0.007779  -0.011874   0.982952  -0.011874
     6  C   -0.011874   0.007779   0.000955   0.007779  -0.011874   0.982952
     7  H    0.980909   0.000854   0.001718   0.000047   0.001718   0.000854
     8  H    0.000854   0.980909   0.000854   0.001718   0.000047   0.001718
     9  H    0.001718   0.000854   0.980909   0.000854   0.001718   0.000047
    10  H    0.000047   0.001718   0.000854   0.980909   0.000854   0.001718
    11  H    0.001718   0.000047   0.001718   0.000854   0.980909   0.000854
    12  H    0.000854   0.001718   0.000047   0.001718   0.000854   0.980909
 Lowdin Atomic Charges:
               1
     1  C   -0.035108
     2  C   -0.035108
     3  C   -0.035108
     4  C   -0.035108
     5  C   -0.035108
     6  C   -0.035108
     7  H    0.035108
     8  H    0.035108
     9  H    0.035108
    10  H    0.035108
    11  H    0.035108
    12  H    0.035108
 Sum of Lowdin charges  =   0.00000
 Lowdin atomic charges with hydrogens summed into heavy atoms:
               1
     1  C    0.000000
     2  C    0.000000
     3  C    0.000000
     4  C    0.000000
     5  C    0.000000
     6  C    0.000000
     7  H    0.000000
     8  H    0.000000
     9  H    0.000000
    10  H    0.000000
    11  H    0.000000
    12  H    0.000000
 Sum of Lowdin charges  =   0.00000
 Dipole moment from Lowdin charges (Debye):
    X=     0.0000    Y=     0.0000    Z=     0.0000  Tot=     0.0000
 Electronic spatial extent (au):  <R**2>=            459.8953
 Charge=              0.0000 electrons
 Dipole moment (field-independent basis, Debye):
    X=              0.0000    Y=              0.0000    Z=              0.0000  Tot=              0.0000
 Quadrupole moment (field-independent basis, Debye-Ang):
   XX=            -31.6649   YY=            -31.6649   ZZ=            -39.4090
   XY=              0.0000   XZ=              0.0000   YZ=              0.0000
 Traceless Quadrupole moment (field-independent basis, Debye-Ang):
   XX=              2.5814   YY=              2.5814   ZZ=             -5.1627
   XY=              0.0000   XZ=              0.0000   YZ=              0.0000
 Octapole moment (field-independent basis, Debye-Ang**2):
  XXX=              0.0000  YYY=              0.0000  ZZZ=              0.0000  XYY=              0.0000
  XXY=              0.0000  XXZ=              0.0000  XZZ=              0.0000  YZZ=              0.0000
  YYZ=              0.0000  XYZ=              0.0000
 Hexadecapole moment (field-independent basis, Debye-Ang**3):
 XXXX=           -270.9129 YYYY=           -270.9129 ZZZZ=            -43.4656 XXXY=              0.0000
 XXXZ=              0.0000 YYYX=              0.0000 YYYZ=              0.0000 ZZZX=              0.0000
 ZZZY=              0.0000 XXYY=            -90.3043 XXZZ=            -62.1563 YYZZ=            -62.1563
 XXYZ=              0.0000 YYXZ=              0.0000 ZZXY=              0.0000
 N-N= 2.030352978423D+02 E-N=-9.421715608433D+02  KE= 2.292215773011D+02
 Symmetry AG   KE= 7.389901043554D+01
 Symmetry B1G  KE= 3.728433330096D+01
 Symmetry B2G  KE= 2.221333900365D+00
 Symmetry B3G  KE= 2.221333900365D+00
 Symmetry AU   KE= 1.753084020830D-16
 Symmetry B1U  KE= 1.859469745951D+00
 Symmetry B2U  KE= 7.147861751848D+01
 Symmetry B3U  KE= 4.025747849944D+01
 There are a total of       94656 grid points.
 ElSum from          density=       42.0000251098
 ElSum from atomic densities=       41.9998402207
 Hirshfeld populations at iteration   1 (CA, CB, DipXYZ):
               1          2          3          4          5
     1  C    3.024909   3.024909   0.000000   0.066901   0.000000
     2  C    3.024901   3.024901   0.057966   0.033434   0.000000
     3  C    3.024901   3.024901   0.057966  -0.033434   0.000000
     4  C    3.024909   3.024909   0.000000  -0.066901   0.000000
     5  C    3.024901   3.024901  -0.057966  -0.033434   0.000000
     6  C    3.024901   3.024901  -0.057966   0.033434   0.000000
     7  H    0.475100   0.475100   0.000000   0.164123   0.000000
     8  H    0.475098   0.475098   0.142130   0.082052   0.000000
     9  H    0.475098   0.475098   0.142130  -0.082052   0.000000
    10  H    0.475100   0.475100   0.000000  -0.164123   0.000000
    11  H    0.475098   0.475098  -0.142130  -0.082052   0.000000
    12  H    0.475098   0.475098  -0.142130   0.082052   0.000000
       Tot  21.000013  21.000013   0.000000   0.000000   0.000000

 Dip from Atomic Chgs              0.000000   0.000000   0.000000
         Total Dipole              0.000000   0.000000   0.000000

 Hirshfeld charges, spin densities, dipoles, and CM5 charges using IRadAn=      4:
              Q-H        S-H        Dx         Dy         Dz        Q-CM5   
     1  C   -0.049818   0.000000   0.000000   0.066901   0.000000  -0.103503
     2  C   -0.049801   0.000000   0.057966   0.033434   0.000000  -0.103487
     3  C   -0.049801   0.000000   0.057966  -0.033434   0.000000  -0.103487
     4  C   -0.049818   0.000000   0.000000  -0.066901   0.000000  -0.103503
     5  C   -0.049801   0.000000  -0.057966  -0.033434   0.000000  -0.103487
     6  C   -0.049801   0.000000  -0.057966   0.033434   0.000000  -0.103487
     7  H    0.049801   0.000000   0.000000   0.164123   0.000000   0.103486
     8  H    0.049804   0.000000   0.142130   0.082052   0.000000   0.103489
     9  H    0.049804   0.000000   0.142130  -0.082052   0.000000   0.103489
    10  H    0.049801   0.000000   0.000000  -0.164123   0.000000   0.103486
    11  H    0.049804   0.000000  -0.142130  -0.082052   0.000000   0.103489
    12  H    0.049804   0.000000  -0.142130   0.082052   0.000000   0.103489
       Tot  -0.000025   0.000000   0.000000   0.000000   0.000000  -0.000025
 Hirshfeld charges with hydrogens summed into heavy atoms:
              Q-H       Q-CM5   
     1  C   -0.000017  -0.000017
     2  C    0.000002   0.000002
     3  C    0.000002   0.000002
     4  C   -0.000017  -0.000017
     5  C    0.000002   0.000002
     6  C    0.000002   0.000002
 
 EQQ= 0.000000000000E+00 EQD= 0.000000000000E+00 EDD= 0.892022774911E-02
 EQQ+QD+DD= 0.892022774911E-02
 
 No NMR shielding tensors so no spin-rotation constants.
 Leave Link  601 at Wed Mar 18 11:35:07 2015, MaxMem=    33554432 cpu:         1.9
 (Enter /usr/local/research/Gaussian09/g09-revD.01/g09/l701.exe)
 Compute integral first derivatives.
 ... and contract with generalized density number  0.
 DipInt: DoE/N= T T RetVal/Mat= T F Init=T NMatP=  1 IDeriv=0 Min/MaxMlt=  1  1
 Entering OneElI...
 Multipole integrals L=1 to 1 MinM= 0 MaxM= 0.
 Requested accuracy = 0.1000D-12
 PrsmSu:  NPrtUS=   1 ThrOK=F IAlg=1 NPAlg=1 LenDen=           0.
 Prism:   IPart=     0 DynPar=F LinDyn=F Incr=          14.
 PRISM was handed    33442233 working-precision words and  1476 shell-pairs
 IPart=  0 NShTot=        1476 NBatch=          30 AvBLen=        49.2
 PrSmSu:  NxtVal=             15.
 Entering OneElI...
 Calculate overlap and kinetic energy integrals
    NBasis = 120  MinDer = 1  MaxDer = 1
 Requested accuracy = 0.1000D-12
 PrsmSu:  NPrtUS=   1 ThrOK=F IAlg=1 NPAlg=1 LenDen=           0.
 Prism:   IPart=     0 DynPar=F LinDyn=F Incr=          14.
 PRISM was handed    33421818 working-precision words and  1485 shell-pairs
 IPart=  0 NShTot=        1485 NBatch=          57 AvBLen=        26.1
 PrSmSu:  NxtVal=             15.
 Entering OneElI...
 Calculate potential energy integrals
    NBasis = 120  MinDer = 1  MaxDer = 1
 Requested accuracy = 0.1000D-12
 PrsmSu:  NPrtUS=   1 ThrOK=F IAlg=1 NPAlg=1 LenDen=           0.
 Prism:   IPart=     0 DynPar=F LinDyn=F Incr=         176.
 PRISM was handed    33442491 working-precision words and  1467 shell-pairs
 IPart=  0 NShTot=       17604 NBatch=        1467 AvBLen=        12.0
 PrSmSu:  NxtVal=            177.
  24 Symmetry operations used in ECPInt.
 ECPInt:  NShTT=    1485 NPrTT=    5349 LenC2=    1486 LenP2D=    4578.
 LDataN:  DoStor=F MaxTD1= 5 Len=  102
 LDataN:  DoStor=T MaxTD1= 5 Len=  102
 ECPSu:  NPrtUS=   1 ThrOK=F
 FXYZ after ECPSu
 I=    0 X=   0.000000000000D+00 Y=   0.000000000000D+00 Z=   0.000000000000D+00
 I=    1 X=   0.000000000000D+00 Y=   0.000000000000D+00 Z=   0.000000000000D+00
 I=    2 X=   0.000000000000D+00 Y=   0.000000000000D+00 Z=   0.000000000000D+00
 I=    3 X=   0.000000000000D+00 Y=   0.000000000000D+00 Z=   0.000000000000D+00
 I=    4 X=   0.000000000000D+00 Y=   0.000000000000D+00 Z=   0.000000000000D+00
 I=    5 X=   0.000000000000D+00 Y=   0.000000000000D+00 Z=   0.000000000000D+00
 I=    6 X=   0.000000000000D+00 Y=   0.000000000000D+00 Z=   0.000000000000D+00
 I=    7 X=   0.000000000000D+00 Y=   0.000000000000D+00 Z=   0.000000000000D+00
 I=    8 X=   0.000000000000D+00 Y=   0.000000000000D+00 Z=   0.000000000000D+00
 I=    9 X=   0.000000000000D+00 Y=   0.000000000000D+00 Z=   0.000000000000D+00
 I=   10 X=   0.000000000000D+00 Y=   0.000000000000D+00 Z=   0.000000000000D+00
 I=   11 X=   0.000000000000D+00 Y=   0.000000000000D+00 Z=   0.000000000000D+00
 I=   12 X=   0.000000000000D+00 Y=   0.000000000000D+00 Z=   0.000000000000D+00
 l701 out
 I=    0 X=   0.000000000000D+00 Y=   0.000000000000D+00 Z=   0.000000000000D+00
 I=    1 X=   0.000000000000D+00 Y=   8.626122773824D+00 Z=   0.000000000000D+00
 I=    2 X=   7.470441458295D+00 Y=   4.313061386912D+00 Z=   0.000000000000D+00
 I=    3 X=   7.470441458295D+00 Y=  -4.313061386912D+00 Z=   0.000000000000D+00
 I=    4 X=   0.000000000000D+00 Y=  -8.626122773824D+00 Z=   0.000000000000D+00
 I=    5 X=  -7.470441458295D+00 Y=  -4.313061386912D+00 Z=   0.000000000000D+00
 I=    6 X=  -7.470441458295D+00 Y=   4.313061386912D+00 Z=   0.000000000000D+00
 I=    7 X=   0.000000000000D+00 Y=   4.820508227506D+00 Z=   0.000000000000D+00
 I=    8 X=   4.174682584172D+00 Y=   2.410254113753D+00 Z=   0.000000000000D+00
 I=    9 X=   4.174682584172D+00 Y=  -2.410254113753D+00 Z=   0.000000000000D+00
 I=   10 X=   0.000000000000D+00 Y=  -4.820508227506D+00 Z=   0.000000000000D+00
 I=   11 X=  -4.174682584172D+00 Y=  -2.410254113753D+00 Z=   0.000000000000D+00
 I=   12 X=  -4.174682584172D+00 Y=   2.410254113753D+00 Z=   0.000000000000D+00
 Leave Link  701 at Wed Mar 18 11:35:07 2015, MaxMem=    33554432 cpu:         0.3
 (Enter /usr/local/research/Gaussian09/g09-revD.01/g09/l702.exe)
 L702 exits ... SP integral derivatives will be done elsewhere.
 Leave Link  702 at Wed Mar 18 11:35:07 2015, MaxMem=    33554432 cpu:         0.1
 (Enter /usr/local/research/Gaussian09/g09-revD.01/g09/l703.exe)
 Compute integral first derivatives, UseDBF=F ICtDFT=           0.
 Integral derivatives from FoFJK, PRISM(SPDF).
 ICntrl=      2127.
 Calling FoFJK, ICntrl=      2127 FMM=F ISym2X=1 I1Cent= 0 IOpClX= 0 NMat=1 NMatS=1 NMatT=0.
 FoFJK:  IHMeth= 1 ICntrl=    2127 DoSepK=F KAlg= 0 I1Cent=   0 FoldK=F
 IRaf=         0 NMat=   1 IRICut=       1 DoRegI=T DoRafI=F ISym2E= 1.
 FoFCou: FMM=F IPFlag=           0 FMFlag=      100000 FMFlg1=         800
         NFxFlg=           0 DoJE=F BraDBF=F KetDBF=F FulRan=T
         wScrn=  0.000000 ICntrl=    2127 IOpCl=  0 I1Cent=           0 NGrid=           0
         NMat0=    1 NMatS0=      1 NMatT0=    0 NMatD0=    1 NMtDS0=    0 NMtDT0=    0
 Petite list used in FoFCou.
 FoFCou:  KetSym=F NOpSet= 24 NOpAb=8 NOp= 24.
 FoFCou:  CnvScl= 1.00D+00 Thresh= 1.00D-10 IAcrcy=      10.
 PrismS was handed    33404184 working-precision words and  1467 shell-pairs
 FoFCou: LinMIO=F DoNuc=F BraDBF=F KetDBF=F HaveP=T PDBF=F HaveZ=T HaveW=F
         NIJTC =       6 NIJTAt=       0 NIJTCD=       0 NIJTT =       6
         IJTBeg=       1 IJTEnd=       6 KLTBeg=       1 KLTEnd=       6
         IPTBeg=       1 IPTEnd=       6 IPTBCv=       1 IPTECv=       6
         IZTBeg=       1 IZTEnd=       6 IZTBCv=       1 IZTECv=       6
         IWTBeg=       7 IWTEnd=       6 IWTBCv=       7 IWTECv=       6
         INTBeg=       1 INTEnd=       0 IFTBCv=       1 IFTECv=       6
 NCel replicated for PrismC:     1
 CoulSu:  IncDef=  1024 NBBP=        1076778 NTPThr=   100 NPartT=    1 Incr=        1024 LDynOK=F.
 CoulSu:  NPrtUS=   1 ThrOK=F IAlg=1 NPAlg=1 LenDen=           0 LWGrdD=           0 DoCopy=F.
 Enter PrismC: JobTyp=21 DoJE=F Cont=F.
 PrismC:  IPart=     0 DynPar=F LinDyn=F Incr=        1024 UseFst=F UseS4=T IGathr=2.
 PrismC was handed    33402670 working-precision words and  1467 shell-pairs
 IPart=  0 NShTot=       85168 NShNF=       85168 NShFF=           0 NBatch=        2219 AvBLen=        38.4
 CoulSu:  NxtVal=           1025.
 ReadGW:  IGet=0 IStart=           1 Next=           1 LGW=           0.
 Remaining memory in FofDFT       31.99 Mw
 CkSvGd:  ISavGI=        -1 IRadAn=       4 IRASav=       0 ISavGd=        -1.
 CalDSu:  NPrtUS=   1 ThrOK=F IAlg=1 NPAlg=1 DoDPD=F LenP=        7260 LenD1P=             0.
 IPart=  0 IRanGd=          0 ScrnBf=T ScrnGd=T RCrit=4.00D+00 DoMicB=T.
 IPart=  0         7735 of         8576 points in      32 batches and       62 microbatches, Max-NSigAt=      12 Max-NSgAt2=      12
 Forces at end of L703
 I=    0 X=   0.000000000000D+00 Y=   0.000000000000D+00 Z=   0.000000000000D+00
 I=    1 X=   0.000000000000D+00 Y=  -4.308862666800D-03 Z=   0.000000000000D+00
 I=    2 X=  -3.731584530897D-03 Y=  -2.154431333245D-03 Z=   0.000000000000D+00
 I=    3 X=  -3.731584530874D-03 Y=   2.154431333279D-03 Z=   0.000000000000D+00
 I=    4 X=   0.000000000000D+00 Y=   4.308862666795D-03 Z=   0.000000000000D+00
 I=    5 X=   3.731584530893D-03 Y=   2.154431333269D-03 Z=   0.000000000000D+00
 I=    6 X=   3.731584530908D-03 Y=  -2.154431333270D-03 Z=   0.000000000000D+00
 I=    7 X=   0.000000000000D+00 Y=   4.464319781749D-03 Z=   0.000000000000D+00
 I=    8 X=   3.866214341621D-03 Y=   2.232159890855D-03 Z=   0.000000000000D+00
 I=    9 X=   3.866214341617D-03 Y=  -2.232159890868D-03 Z=   0.000000000000D+00
 I=   10 X=   0.000000000000D+00 Y=  -4.464319781743D-03 Z=   0.000000000000D+00
 I=   11 X=  -3.866214341627D-03 Y=  -2.232159890863D-03 Z=   0.000000000000D+00
 I=   12 X=  -3.866214341624D-03 Y=   2.232159890864D-03 Z=   0.000000000000D+00
 Leave Link  703 at Wed Mar 18 11:35:09 2015, MaxMem=    33554432 cpu:         1.4
 (Enter /usr/local/research/Gaussian09/g09-revD.01/g09/l716.exe)
 FrcOut:
 IF    =   551 IFX   =   605 IFXYZ =   641
 IFFX  =   677 IFFFX =   677 IFLen =    54
 IFFLen=     0 IFFFLn=     0 IEDerv=   677
 LEDerv=  1781 IFroze=  2864 ICStrt= 29225
 Dipole        =-4.44089210D-15 1.77635684D-15-3.48899998D-33
 Quadrupole    = 1.91917165D+00 1.91917165D+00-3.83834330D+00
                 3.55271368D-15-2.41551319D-17-9.01481794D-17
 Forces in standard orientation:
 -------------------------------------------------------------------
 Center     Atomic                   Forces (Hartrees/Bohr)
 Number     Number              X              Y              Z
 -------------------------------------------------------------------
      1        6           0.000000000   -0.004308863    0.000000000
      2        6          -0.003731585   -0.002154431    0.000000000
      3        6          -0.003731585    0.002154431    0.000000000
      4        6           0.000000000    0.004308863    0.000000000
      5        6           0.003731585    0.002154431    0.000000000
      6        6           0.003731585   -0.002154431    0.000000000
      7        1           0.000000000    0.004464320    0.000000000
      8        1           0.003866214    0.002232160    0.000000000
      9        1           0.003866214   -0.002232160    0.000000000
     10        1           0.000000000   -0.004464320    0.000000000
     11        1          -0.003866214   -0.002232160    0.000000000
     12        1          -0.003866214    0.002232160    0.000000000
 -------------------------------------------------------------------
 ***** Axes restored to original set *****
 Rotating derivatives, DoTrsp=F IDiff=-1 LEDeriv=   1780 LFDPrp=       0 LDFDPr=       0.
 -------------------------------------------------------------------
 Center     Atomic                   Forces (Hartrees/Bohr)
 Number     Number              X              Y              Z
 -------------------------------------------------------------------
      1        6           0.000000000    0.004308863    0.000000000
      2        6          -0.003731585    0.002154431    0.000000000
      3        6          -0.003731585   -0.002154431    0.000000000
      4        6           0.000000000   -0.004308863    0.000000000
      5        6           0.003731585   -0.002154431    0.000000000
      6        6           0.003731585    0.002154431    0.000000000
      7        1           0.000000000   -0.004464320    0.000000000
      8        1           0.003866214   -0.002232160    0.000000000
      9        1           0.003866214    0.002232160    0.000000000
     10        1           0.000000000    0.004464320    0.000000000
     11        1          -0.003866214    0.002232160    0.000000000
     12        1          -0.003866214   -0.002232160    0.000000000
 -------------------------------------------------------------------
 Cartesian Forces:  Max     0.004464320 RMS     0.002532997
 Final forces over variables, Energy=-2.31801894D+02:
  0.00000000D+00 0.00000000D+00 0.00000000D+00 0.00000000D+00
  0.00000000D+00 0.00000000D+00 0.00000000D+00 0.00000000D+00
  0.00000000D+00 0.00000000D+00 0.00000000D+00 0.00000000D+00
  0.00000000D+00 0.00000000D+00 0.00000000D+00 0.00000000D+00
  0.00000000D+00 0.00000000D+00 0.00000000D+00 0.00000000D+00
  0.00000000D+00 0.00000000D+00 0.00000000D+00 0.00000000D+00
  0.00000000D+00 0.00000000D+00 0.00000000D+00 0.00000000D+00
  0.00000000D+00 0.00000000D+00 0.00000000D+00 0.00000000D+00
  0.00000000D+00 0.00000000D+00 0.00000000D+00 0.00000000D+00
  0.00000000D+00 0.00000000D+00 0.00000000D+00 0.00000000D+00
  0.00000000D+00 0.00000000D+00 0.00000000D+00 0.00000000D+00
  0.00000000D+00 0.00000000D+00 0.00000000D+00 0.00000000D+00
  0.00000000D+00 0.00000000D+00 0.00000000D+00 0.00000000D+00
  0.00000000D+00 0.00000000D+00
 Leave Link  716 at Wed Mar 18 11:35:09 2015, MaxMem=    33554432 cpu:         0.1
 (Enter /usr/local/research/Gaussian09/g09-revD.01/g09/l103.exe)

 GradGradGradGradGradGradGradGradGradGradGradGradGradGradGradGradGradGrad
 Berny optimization.
 FormGI is forming the generalized inverse of G from B-inverse, IUseBI=4.
 Internal  Forces:  Max     0.004464320 RMS     0.001489009
 Search for a local minimum.
 Step number   1 out of a maximum of   64
 All quantities printed in internal units (Hartrees-Bohrs-Radians)
 RMS Force = .14890D-02 SwitMx=.10000D-02 MixMth= 1
 Mixed Optimization -- RFO/linear search
 Second derivative matrix not updated -- first step.
 ITU=  0
     Eigenvalues ---    0.02155   0.02155   0.02155   0.02155   0.02155
     Eigenvalues ---    0.02155   0.02155   0.02155   0.02155   0.16000
     Eigenvalues ---    0.16000   0.16000   0.16000   0.16000   0.16000
     Eigenvalues ---    0.22000   0.22000   0.22000   0.33725   0.33725
     Eigenvalues ---    0.33725   0.33725   0.33725   0.33725   0.42118
     Eigenvalues ---    0.42118   0.46461   0.46461   0.46461   0.46461
 RFO step:  Lambda=-3.54512966D-04 EMin= 2.15501956D-02
 Linear search not attempted -- first point.
 Iteration  1 RMS(Cart)=  0.00452063 RMS(Int)=  0.00000000
 Iteration  2 RMS(Cart)=  0.00000000 RMS(Int)=  0.00000000
 ITry= 1 IFail=0 DXMaxC= 1.36D-02 DCOld= 1.00D+10 DXMaxT= 3.00D-01 DXLimC= 3.00D+00 Rises=F
 ClnCor:  largest displacement from symmetrization is 3.00D-13 for atom     6.
 Variable       Old X    -DE/DX   Delta X   Delta X   Delta X     New X
                                 (Linear)    (Quad)   (Total)
    R1        2.63615  -0.00016   0.00000  -0.00033  -0.00033   2.63582
    R2        2.63615  -0.00016   0.00000  -0.00033  -0.00033   2.63582
    R3        2.07796  -0.00446   0.00000  -0.01322  -0.01322   2.06474
    R4        2.63615  -0.00016   0.00000  -0.00033  -0.00033   2.63582
    R5        2.07796  -0.00446   0.00000  -0.01322  -0.01322   2.06474
    R6        2.63615  -0.00016   0.00000  -0.00033  -0.00033   2.63582
    R7        2.07796  -0.00446   0.00000  -0.01322  -0.01322   2.06474
    R8        2.63615  -0.00016   0.00000  -0.00033  -0.00033   2.63582
    R9        2.07796  -0.00446   0.00000  -0.01322  -0.01322   2.06474
   R10        2.63615  -0.00016   0.00000  -0.00033  -0.00033   2.63582
   R11        2.07796  -0.00446   0.00000  -0.01322  -0.01322   2.06474
   R12        2.07796  -0.00446   0.00000  -0.01322  -0.01322   2.06474
    A1        2.09440   0.00000   0.00000   0.00000   0.00000   2.09440
    A2        2.09440   0.00000   0.00000   0.00000   0.00000   2.09440
    A3        2.09440   0.00000   0.00000   0.00000   0.00000   2.09440
    A4        2.09440   0.00000   0.00000   0.00000   0.00000   2.09440
    A5        2.09440   0.00000   0.00000   0.00000   0.00000   2.09440
    A6        2.09440   0.00000   0.00000   0.00000   0.00000   2.09440
    A7        2.09440   0.00000   0.00000   0.00000   0.00000   2.09440
    A8        2.09440   0.00000   0.00000   0.00000   0.00000   2.09440
    A9        2.09440   0.00000   0.00000   0.00000   0.00000   2.09440
   A10        2.09440   0.00000   0.00000   0.00000   0.00000   2.09440
   A11        2.09440   0.00000   0.00000   0.00000   0.00000   2.09440
   A12        2.09440   0.00000   0.00000   0.00000   0.00000   2.09440
   A13        2.09440   0.00000   0.00000   0.00000   0.00000   2.09440
   A14        2.09440   0.00000   0.00000   0.00000   0.00000   2.09440
   A15        2.09440   0.00000   0.00000   0.00000   0.00000   2.09440
   A16        2.09440   0.00000   0.00000   0.00000   0.00000   2.09440
   A17        2.09440   0.00000   0.00000   0.00000   0.00000   2.09440
   A18        2.09440   0.00000   0.00000   0.00000   0.00000   2.09440
    D1        0.00000   0.00000   0.00000   0.00000   0.00000   0.00000
    D2        3.14159   0.00000   0.00000   0.00000   0.00000   3.14159
    D3        3.14159   0.00000   0.00000   0.00000   0.00000   3.14159
    D4        0.00000   0.00000   0.00000   0.00000   0.00000   0.00000
    D5        0.00000   0.00000   0.00000   0.00000   0.00000   0.00000
    D6        3.14159   0.00000   0.00000   0.00000   0.00000   3.14159
    D7        3.14159   0.00000   0.00000   0.00000   0.00000   3.14159
    D8        0.00000   0.00000   0.00000   0.00000   0.00000   0.00000
    D9        0.00000   0.00000   0.00000   0.00000   0.00000   0.00000
   D10        3.14159   0.00000   0.00000   0.00000   0.00000   3.14159
   D11        3.14159   0.00000   0.00000   0.00000   0.00000   3.14159
   D12        0.00000   0.00000   0.00000   0.00000   0.00000   0.00000
   D13        0.00000   0.00000   0.00000   0.00000   0.00000   0.00000
   D14        3.14159   0.00000   0.00000   0.00000   0.00000   3.14159
   D15        3.14159   0.00000   0.00000   0.00000   0.00000   3.14159
   D16        0.00000   0.00000   0.00000   0.00000   0.00000   0.00000
   D17        0.00000   0.00000   0.00000   0.00000   0.00000   0.00000
   D18        3.14159   0.00000   0.00000   0.00000   0.00000   3.14159
   D19        3.14159   0.00000   0.00000   0.00000   0.00000   3.14159
   D20        0.00000   0.00000   0.00000   0.00000   0.00000   0.00000
   D21        0.00000   0.00000   0.00000   0.00000   0.00000   0.00000
   D22        3.14159   0.00000   0.00000   0.00000   0.00000   3.14159
   D23        3.14159   0.00000   0.00000   0.00000   0.00000   3.14159
   D24        0.00000   0.00000   0.00000   0.00000   0.00000   0.00000
         Item               Value     Threshold  Converged?
 Maximum Force            0.004464     0.000450     NO 
 RMS     Force            0.001489     0.000300     NO 
 Maximum Displacement     0.013558     0.001800     NO 
 RMS     Displacement     0.004521     0.001200     NO 
 Predicted change in Energy=-1.774428D-04
 Lowest energy point so far.  Saving SCF results.
 GradGradGradGradGradGradGradGradGradGradGradGradGradGradGradGradGradGrad

 Leave Link  103 at Wed Mar 18 11:35:09 2015, MaxMem=    33554432 cpu:         0.0
 (Enter /usr/local/research/Gaussian09/g09-revD.01/g09/l202.exe)
                          Input orientation:                          
 ---------------------------------------------------------------------
 Center     Atomic      Atomic             Coordinates (Angstroms)
 Number     Number       Type             X           Y           Z
 ---------------------------------------------------------------------
      1          6           0        0.000000    1.394814    0.000000
      2          6           0       -1.207944    0.697407    0.000000
      3          6           0       -1.207944   -0.697407    0.000000
      4          6           0        0.000000   -1.394814    0.000000
      5          6           0        1.207944   -0.697407    0.000000
      6          6           0        1.207944    0.697407    0.000000
      7          1           0        0.000000    2.487427    0.000000
      8          1           0       -2.154175    1.243713    0.000000
      9          1           0       -2.154175   -1.243713    0.000000
     10          1           0        0.000000   -2.487427    0.000000
     11          1           0        2.154175   -1.243713    0.000000
     12          1           0        2.154175    1.243713    0.000000
 ---------------------------------------------------------------------
                    Distance matrix (angstroms):
                    1          2          3          4          5
     1  C    0.000000
     2  C    1.394814   0.000000
     3  C    2.415888   1.394814   0.000000
     4  C    2.789627   2.415888   1.394814   0.000000
     5  C    2.415888   2.789627   2.415888   1.394814   0.000000
     6  C    1.394814   2.415888   2.789627   2.415888   1.394814
     7  H    1.092613   2.159467   3.406214   3.882240   3.406214
     8  H    2.159467   1.092613   2.159467   3.406214   3.882240
     9  H    3.406214   2.159467   1.092613   2.159467   3.406214
    10  H    3.882240   3.406214   2.159467   1.092613   2.159467
    11  H    3.406214   3.882240   3.406214   2.159467   1.092613
    12  H    2.159467   3.406214   3.882240   3.406214   2.159467
                    6          7          8          9         10
     6  C    0.000000
     7  H    2.159467   0.000000
     8  H    3.406214   2.487427   0.000000
     9  H    3.882240   4.308349   2.487427   0.000000
    10  H    3.406214   4.974853   4.308349   2.487427   0.000000
    11  H    2.159467   4.308349   4.974853   4.308349   2.487427
    12  H    1.092613   2.487427   4.308349   4.974853   4.308349
                   11         12
    11  H    0.000000
    12  H    2.487427   0.000000
 Stoichiometry    C6H6
 Framework group  D6H[3C2'(HC.CH)]
 Deg. of freedom     2
 Full point group                 D6H     NOp  24
 RotChk:  IX=0 Diff= 6.28D-16
 Largest Abelian subgroup         D2H     NOp   8
 Largest concise Abelian subgroup D2      NOp   4
                         Standard orientation:                         
 ---------------------------------------------------------------------
 Center     Atomic      Atomic             Coordinates (Angstroms)
 Number     Number       Type             X           Y           Z
 ---------------------------------------------------------------------
      1          6           0        0.000000    1.394814    0.000000
      2          6           0        1.207944    0.697407    0.000000
      3          6           0        1.207944   -0.697407    0.000000
      4          6           0        0.000000   -1.394814    0.000000
      5          6           0       -1.207944   -0.697407    0.000000
      6          6           0       -1.207944    0.697407    0.000000
      7          1           0        0.000000    2.487427    0.000000
      8          1           0        2.154175    1.243713    0.000000
      9          1           0        2.154175   -1.243713    0.000000
     10          1           0        0.000000   -2.487427    0.000000
     11          1           0       -2.154175   -1.243713    0.000000
     12          1           0       -2.154175    1.243713    0.000000
 ---------------------------------------------------------------------
 Rotational constants (GHZ):      5.6947121      5.6947121      2.8473560
 Leave Link  202 at Wed Mar 18 11:35:09 2015, MaxMem=    33554432 cpu:         0.0
 (Enter /usr/local/research/Gaussian09/g09-revD.01/g09/l301.exe)
 Standard basis: def2SVP (5D, 7F)
 Ernie: Thresh=  0.10000D-02 Tol=  0.10000D-05 Strict=F.
 There are    26 symmetry adapted cartesian basis functions of AG  symmetry.
 There are    19 symmetry adapted cartesian basis functions of B1G symmetry.
 There are     6 symmetry adapted cartesian basis functions of B2G symmetry.
 There are     9 symmetry adapted cartesian basis functions of B3G symmetry.
 There are     6 symmetry adapted cartesian basis functions of AU  symmetry.
 There are     9 symmetry adapted cartesian basis functions of B1U symmetry.
 There are    26 symmetry adapted cartesian basis functions of B2U symmetry.
 There are    19 symmetry adapted cartesian basis functions of B3U symmetry.
 There are    24 symmetry adapted basis functions of AG  symmetry.
 There are    18 symmetry adapted basis functions of B1G symmetry.
 There are     6 symmetry adapted basis functions of B2G symmetry.
 There are     9 symmetry adapted basis functions of B3G symmetry.
 There are     6 symmetry adapted basis functions of AU  symmetry.
 There are     9 symmetry adapted basis functions of B1U symmetry.
 There are    24 symmetry adapted basis functions of B2U symmetry.
 There are    18 symmetry adapted basis functions of B3U symmetry.
   114 basis functions,   192 primitive gaussians,   120 cartesian basis functions
    21 alpha electrons       21 beta electrons
       nuclear repulsion energy       203.2522480383 Hartrees.
 IExCor= 1009 DFT=T Ex+Corr=PBE1PBE ExCW=0 ScaHFX=  0.250000
 ScaDFX=  0.750000  0.750000  1.000000  1.000000 ScalE2=  1.000000  1.000000
 IRadAn=      0 IRanWt=     -1 IRanGd=            0 ICorTp=0 IEmpDi=  4
 NAtoms=   12 NActive=   12 NUniq=    2 SFac= 4.00D+00 NAtFMM=   60 NAOKFM=F Big=F
 Integral buffers will be    131072 words long.
 Raffenetti 2 integral format.
 Two-electron integral symmetry is turned on.
 Leave Link  301 at Wed Mar 18 11:35:09 2015, MaxMem=    33554432 cpu:         0.1
 (Enter /usr/local/research/Gaussian09/g09-revD.01/g09/l302.exe)
 NPDir=0 NMtPBC=     1 NCelOv=     1 NCel=       1 NClECP=     1 NCelD=      1
         NCelK=      1 NCelE2=     1 NClLst=     1 CellRange=     0.0.
 One-electron integrals computed using PRISM.
 One-electron integral symmetry used in STVInt
  24 Symmetry operations used in ECPInt.
 ECPInt:  NShTT=    1485 NPrTT=    5349 LenC2=    1486 LenP2D=    4578.
 LDataN:  DoStor=T MaxTD1= 4 Len=   56
 NBasis=   114 RedAO= T EigKep=  2.67D-04  NBF=    24    18     6     9     6     9    24    18
 NBsUse=   114 1.00D-06 EigRej= -1.00D+00 NBFU=    24    18     6     9     6     9    24    18
 Precomputing XC quadrature grid using
 IXCGrd= 4 IRadAn=           0 IRanWt=          -1 IRanGd=           0 AccXCQ= 0.00D+00.
 Generated NRdTot=       0 NPtTot=           0 NUsed=           0 NTot=          32
 NSgBfM=   120   120   120   120   120 MxSgAt=    12 MxSgA2=    12.
 Leave Link  302 at Wed Mar 18 11:35:09 2015, MaxMem=    33554432 cpu:         0.5
 (Enter /usr/local/research/Gaussian09/g09-revD.01/g09/l303.exe)
 DipDrv:  MaxL=1.
 Leave Link  303 at Wed Mar 18 11:35:09 2015, MaxMem=    33554432 cpu:         0.1
 (Enter /usr/local/research/Gaussian09/g09-revD.01/g09/l401.exe)
 Initial guess from the checkpoint file:  "g09-benzene.chk"
 B after Tr=     0.000000    0.000000    0.000000
         Rot=    1.000000    0.000000    0.000000    0.000000 Ang=   0.00 deg.
 Guess basis will be translated and rotated to current coordinates.
 JPrj=2 DoOrth=T DoCkMO=T.
 Initial guess orbital symmetries:
       Occupied  (A1G) (E1U) (E1U) (E2G) (E2G) (B1U) (A1G) (E1U)
                 (E1U) (E2G) (E2G) (A1G) (B1U) (B2U) (E1U) (E1U)
                 (A2U) (E2G) (E2G) (E1G) (E1G)
       Virtual   (B2G) (B2G) (B2G) (B2G) (B2G) (B2G) (B2G) (B2G)
                 (B2G) (B2G) (B2G) (B2G) (B2G) (B2G) (B2G) (B2G)
                 (B2G) (B2G) (B2G) (B2G) (B2G) (B2G) (B2G) (B2G)
                 (B2G) (B2G) (B2G) (B2G) (B2G) (B2G) (B2G) (B2G)
                 (B2G) (?A) (?A) (?A) (?A) (?A) (?A) (?A) (?A)
                 (?A) (?A) (?A) (?A) (?A) (?B) (?B) (?B) (?B) (?B)
                 (?B) (?B) (?B) (?B) (?B) (?B) (?B) (?B) (?B) (?C)
                 (?C) (?C) (?C) (?C) (?C) (?C) (?C) (?C) (?C) (?C)
                 (?C) (?C) (?C) (?C) (?C) (?C) (?C) (?C) (?C) (?C)
                 (?C) (?C) (?C) (?C) (?C) (?C) (?C) (?C) (?C) (?C)
                 (?C) (?C)
 The electronic state of the initial guess is 1-A1G.
 Leave Link  401 at Wed Mar 18 11:35:10 2015, MaxMem=    33554432 cpu:         0.2
 (Enter /usr/local/research/Gaussian09/g09-revD.01/g09/l502.exe)
 Closed shell SCF:
 Using DIIS extrapolation, IDIIS=  1040.
 Integral symmetry usage will be decided dynamically.
 Keep R1 ints in memory in symmetry-blocked form, NReq=24406346.
 IVT=       64994 IEndB=       64994 NGot=    33554432 MDV=    30635491
 LenX=    30635491 LenY=    30620650
 Requested convergence on RMS density matrix=1.00D-08 within 128 cycles.
 Requested convergence on MAX density matrix=1.00D-06.
 Requested convergence on             energy=1.00D-06.
 No special actions if energy rises.
 FoFCou: FMM=F IPFlag=           0 FMFlag=           0 FMFlg1=           0
         NFxFlg=           0 DoJE=F BraDBF=F KetDBF=F FulRan=T
         wScrn=  0.000000 ICntrl=     600 IOpCl=  0 I1Cent=           0 NGrid=           0
         NMat0=    1 NMatS0=   6555 NMatT0=    0 NMatD0=    1 NMtDS0=    0 NMtDT0=    0
 Petite list used in FoFCou.

 Cycle   1  Pass 1  IDiag  1:
 E= -231.802021977125    
 DIIS: error= 4.50D-04 at cycle   1 NSaved=   1.
 NSaved= 1 IEnMin= 1 EnMin= -231.802021977125     IErMin= 1 ErrMin= 4.50D-04
 ErrMax= 4.50D-04  0.00D+00 EMaxC= 1.00D-01 BMatC= 3.25D-05 BMatP= 3.25D-05
 IDIUse=3 WtCom= 9.95D-01 WtEn= 4.50D-03
 Coeff-Com:  0.100D+01
 Coeff-En:   0.100D+01
 Coeff:      0.100D+01
 Gap=     0.614 Goal=   None    Shift=    0.000
 RMSDP=2.36D-04 MaxDP=2.60D-03              OVMax= 1.59D-03

 Cycle   2  Pass 1  IDiag  1:
 E= -231.802059931965     Delta-E=       -0.000037954840 Rises=F Damp=F
 DIIS: error= 9.55D-05 at cycle   2 NSaved=   2.
 NSaved= 2 IEnMin= 2 EnMin= -231.802059931965     IErMin= 2 ErrMin= 9.55D-05
 ErrMax= 9.55D-05  0.00D+00 EMaxC= 1.00D-01 BMatC= 1.06D-06 BMatP= 3.25D-05
 IDIUse=1 WtCom= 1.00D+00 WtEn= 0.00D+00
 Coeff-Com:  0.868D-01 0.913D+00
 Coeff:      0.868D-01 0.913D+00
 Gap=     0.264 Goal=   None    Shift=    0.000
 RMSDP=2.31D-05 MaxDP=3.05D-04 DE=-3.80D-05 OVMax= 2.40D-04

 Cycle   3  Pass 1  IDiag  1:
 E= -231.802060973865     Delta-E=       -0.000001041900 Rises=F Damp=F
 DIIS: error= 2.53D-05 at cycle   3 NSaved=   3.
 NSaved= 3 IEnMin= 3 EnMin= -231.802060973865     IErMin= 3 ErrMin= 2.53D-05
 ErrMax= 2.53D-05  0.00D+00 EMaxC= 1.00D-01 BMatC= 8.04D-08 BMatP= 1.06D-06
 IDIUse=1 WtCom= 1.00D+00 WtEn= 0.00D+00
 Coeff-Com: -0.283D-02 0.194D+00 0.809D+00
 Coeff:     -0.283D-02 0.194D+00 0.809D+00
 Gap=     0.264 Goal=   None    Shift=    0.000
 RMSDP=3.72D-06 MaxDP=3.69D-05 DE=-1.04D-06 OVMax= 5.88D-05

 Cycle   4  Pass 1  IDiag  1:
 E= -231.802061050353     Delta-E=       -0.000000076488 Rises=F Damp=F
 DIIS: error= 2.20D-06 at cycle   4 NSaved=   4.
 NSaved= 4 IEnMin= 4 EnMin= -231.802061050353     IErMin= 4 ErrMin= 2.20D-06
 ErrMax= 2.20D-06  0.00D+00 EMaxC= 1.00D-01 BMatC= 4.47D-10 BMatP= 8.04D-08
 IDIUse=1 WtCom= 1.00D+00 WtEn= 0.00D+00
 Coeff-Com: -0.164D-02-0.432D-02 0.546D-01 0.951D+00
 Coeff:     -0.164D-02-0.432D-02 0.546D-01 0.951D+00
 Gap=     0.264 Goal=   None    Shift=    0.000
 RMSDP=3.01D-07 MaxDP=2.68D-06 DE=-7.65D-08 OVMax= 4.85D-06

 Cycle   5  Pass 1  IDiag  1:
 E= -231.802061050784     Delta-E=       -0.000000000431 Rises=F Damp=F
 DIIS: error= 3.42D-07 at cycle   5 NSaved=   5.
 NSaved= 5 IEnMin= 5 EnMin= -231.802061050784     IErMin= 5 ErrMin= 3.42D-07
 ErrMax= 3.42D-07  0.00D+00 EMaxC= 1.00D-01 BMatC= 1.30D-11 BMatP= 4.47D-10
 IDIUse=1 WtCom= 1.00D+00 WtEn= 0.00D+00
 Coeff-Com: -0.324D-03-0.172D-02 0.665D-02 0.172D+00 0.823D+00
 Coeff:     -0.324D-03-0.172D-02 0.665D-02 0.172D+00 0.823D+00
 Gap=     0.264 Goal=   None    Shift=    0.000
 RMSDP=6.15D-08 MaxDP=7.79D-07 DE=-4.31D-10 OVMax= 1.12D-06

 Cycle   6  Pass 1  IDiag  1:
 E= -231.802061050792     Delta-E=       -0.000000000008 Rises=F Damp=F
 DIIS: error= 2.07D-07 at cycle   6 NSaved=   6.
 NSaved= 6 IEnMin= 6 EnMin= -231.802061050792     IErMin= 6 ErrMin= 2.07D-07
 ErrMax= 2.07D-07  0.00D+00 EMaxC= 1.00D-01 BMatC= 5.55D-12 BMatP= 1.30D-11
 IDIUse=1 WtCom= 1.00D+00 WtEn= 0.00D+00
 Coeff-Com:  0.231D-04-0.535D-03-0.204D-02-0.979D-02 0.393D+00 0.619D+00
 Coeff:      0.231D-04-0.535D-03-0.204D-02-0.979D-02 0.393D+00 0.619D+00
 Gap=     0.264 Goal=   None    Shift=    0.000
 RMSDP=2.38D-08 MaxDP=3.12D-07 DE=-8.19D-12 OVMax= 5.98D-07

 Cycle   7  Pass 1  IDiag  1:
 E= -231.802061050803     Delta-E=       -0.000000000011 Rises=F Damp=F
 DIIS: error= 4.54D-09 at cycle   7 NSaved=   7.
 NSaved= 7 IEnMin= 7 EnMin= -231.802061050803     IErMin= 7 ErrMin= 4.54D-09
 ErrMax= 4.54D-09  0.00D+00 EMaxC= 1.00D-01 BMatC= 2.77D-15 BMatP= 5.55D-12
 IDIUse=1 WtCom= 1.00D+00 WtEn= 0.00D+00
 Coeff-Com:  0.151D-05 0.176D-04-0.510D-04-0.108D-02-0.153D-01-0.237D-03
 Coeff-Com:  0.102D+01
 Coeff:      0.151D-05 0.176D-04-0.510D-04-0.108D-02-0.153D-01-0.237D-03
 Coeff:      0.102D+01
 Gap=     0.264 Goal=   None    Shift=    0.000
 RMSDP=9.17D-10 MaxDP=9.99D-09 DE=-1.08D-11 OVMax= 1.20D-08

 SCF Done:  E(RPBE1PBE) =  -231.802061051     A.U. after    7 cycles
            NFock=  7  Conv=0.92D-09     -V/T= 2.0110
 KE= 2.292786308107D+02 PE=-9.426497871182D+02 EE= 2.783168472183D+02
 Leave Link  502 at Wed Mar 18 11:35:14 2015, MaxMem=    33554432 cpu:         4.6
 (Enter /usr/local/research/Gaussian09/g09-revD.01/g09/l701.exe)
 Compute integral first derivatives.
 ... and contract with generalized density number  0.
 DipInt: DoE/N= T T RetVal/Mat= T F Init=T NMatP=  1 IDeriv=0 Min/MaxMlt=  1  1
 Entering OneElI...
 Multipole integrals L=1 to 1 MinM= 0 MaxM= 0.
 Requested accuracy = 0.1000D-12
 PrsmSu:  NPrtUS=   1 ThrOK=F IAlg=1 NPAlg=1 LenDen=           0.
 Prism:   IPart=     0 DynPar=F LinDyn=F Incr=          14.
 PRISM was handed    33442233 working-precision words and  1476 shell-pairs
 IPart=  0 NShTot=        1476 NBatch=          30 AvBLen=        49.2
 PrSmSu:  NxtVal=             15.
 Entering OneElI...
 Calculate overlap and kinetic energy integrals
    NBasis = 120  MinDer = 1  MaxDer = 1
 Requested accuracy = 0.1000D-12
 PrsmSu:  NPrtUS=   1 ThrOK=F IAlg=1 NPAlg=1 LenDen=           0.
 Prism:   IPart=     0 DynPar=F LinDyn=F Incr=          14.
 PRISM was handed    33421818 working-precision words and  1485 shell-pairs
 IPart=  0 NShTot=        1485 NBatch=          57 AvBLen=        26.1
 PrSmSu:  NxtVal=             15.
 Entering OneElI...
 Calculate potential energy integrals
    NBasis = 120  MinDer = 1  MaxDer = 1
 Requested accuracy = 0.1000D-12
 PrsmSu:  NPrtUS=   1 ThrOK=F IAlg=1 NPAlg=1 LenDen=           0.
 Prism:   IPart=     0 DynPar=F LinDyn=F Incr=         176.
 PRISM was handed    33442491 working-precision words and  1467 shell-pairs
 IPart=  0 NShTot=       17604 NBatch=        1467 AvBLen=        12.0
 PrSmSu:  NxtVal=            177.
  24 Symmetry operations used in ECPInt.
 ECPInt:  NShTT=    1485 NPrTT=    5349 LenC2=    1486 LenP2D=    4578.
 LDataN:  DoStor=F MaxTD1= 5 Len=  102
 LDataN:  DoStor=T MaxTD1= 5 Len=  102
 ECPSu:  NPrtUS=   1 ThrOK=F
 FXYZ after ECPSu
 I=    0 X=   0.000000000000D+00 Y=   0.000000000000D+00 Z=   0.000000000000D+00
 I=    1 X=   0.000000000000D+00 Y=   0.000000000000D+00 Z=   0.000000000000D+00
 I=    2 X=   0.000000000000D+00 Y=   0.000000000000D+00 Z=   0.000000000000D+00
 I=    3 X=   0.000000000000D+00 Y=   0.000000000000D+00 Z=   0.000000000000D+00
 I=    4 X=   0.000000000000D+00 Y=   0.000000000000D+00 Z=   0.000000000000D+00
 I=    5 X=   0.000000000000D+00 Y=   0.000000000000D+00 Z=   0.000000000000D+00
 I=    6 X=   0.000000000000D+00 Y=   0.000000000000D+00 Z=   0.000000000000D+00
 I=    7 X=   0.000000000000D+00 Y=   0.000000000000D+00 Z=   0.000000000000D+00
 I=    8 X=   0.000000000000D+00 Y=   0.000000000000D+00 Z=   0.000000000000D+00
 I=    9 X=   0.000000000000D+00 Y=   0.000000000000D+00 Z=   0.000000000000D+00
 I=   10 X=   0.000000000000D+00 Y=   0.000000000000D+00 Z=   0.000000000000D+00
 I=   11 X=   0.000000000000D+00 Y=   0.000000000000D+00 Z=   0.000000000000D+00
 I=   12 X=   0.000000000000D+00 Y=   0.000000000000D+00 Z=   0.000000000000D+00
 l701 out
 I=    0 X=   0.000000000000D+00 Y=   0.000000000000D+00 Z=   0.000000000000D+00
 I=    1 X=   0.000000000000D+00 Y=   8.611084055149D+00 Z=   0.000000000000D+00
 I=    2 X=   7.457417545882D+00 Y=   4.305542027575D+00 Z=   0.000000000000D+00
 I=    3 X=   7.457417545882D+00 Y=  -4.305542027575D+00 Z=   0.000000000000D+00
 I=    4 X=   0.000000000000D+00 Y=  -8.611084055149D+00 Z=   0.000000000000D+00
 I=    5 X=  -7.457417545882D+00 Y=  -4.305542027575D+00 Z=   0.000000000000D+00
 I=    6 X=  -7.457417545882D+00 Y=   4.305542027575D+00 Z=   0.000000000000D+00
 I=    7 X=   0.000000000000D+00 Y=   4.824285751703D+00 Z=   0.000000000000D+00
 I=    8 X=   4.177954016090D+00 Y=   2.412142875852D+00 Z=   0.000000000000D+00
 I=    9 X=   4.177954016090D+00 Y=  -2.412142875852D+00 Z=   0.000000000000D+00
 I=   10 X=   0.000000000000D+00 Y=  -4.824285751703D+00 Z=   0.000000000000D+00
 I=   11 X=  -4.177954016090D+00 Y=  -2.412142875852D+00 Z=   0.000000000000D+00
 I=   12 X=  -4.177954016090D+00 Y=   2.412142875852D+00 Z=   0.000000000000D+00
 Leave Link  701 at Wed Mar 18 11:35:15 2015, MaxMem=    33554432 cpu:         0.3
 (Enter /usr/local/research/Gaussian09/g09-revD.01/g09/l702.exe)
 L702 exits ... SP integral derivatives will be done elsewhere.
 Leave Link  702 at Wed Mar 18 11:35:15 2015, MaxMem=    33554432 cpu:         0.1
 (Enter /usr/local/research/Gaussian09/g09-revD.01/g09/l703.exe)
 Compute integral first derivatives, UseDBF=F ICtDFT=           0.
 Integral derivatives from FoFJK, PRISM(SPDF).
 ICntrl=      2127.
 Calling FoFJK, ICntrl=      2127 FMM=F ISym2X=1 I1Cent= 0 IOpClX= 0 NMat=1 NMatS=1 NMatT=0.
 FoFJK:  IHMeth= 1 ICntrl=    2127 DoSepK=F KAlg= 0 I1Cent=   0 FoldK=F
 IRaf=         0 NMat=   1 IRICut=       1 DoRegI=T DoRafI=F ISym2E= 1.
 FoFCou: FMM=F IPFlag=           0 FMFlag=      100000 FMFlg1=         800
         NFxFlg=           0 DoJE=F BraDBF=F KetDBF=F FulRan=T
         wScrn=  0.000000 ICntrl=    2127 IOpCl=  0 I1Cent=           0 NGrid=           0
         NMat0=    1 NMatS0=      1 NMatT0=    0 NMatD0=    1 NMtDS0=    0 NMtDT0=    0
 Petite list used in FoFCou.
 FoFCou:  KetSym=F NOpSet= 24 NOpAb=8 NOp= 24.
 FoFCou:  CnvScl= 1.00D+00 Thresh= 1.00D-10 IAcrcy=      10.
 PrismS was handed    33404184 working-precision words and  1467 shell-pairs
 FoFCou: LinMIO=F DoNuc=F BraDBF=F KetDBF=F HaveP=T PDBF=F HaveZ=T HaveW=F
         NIJTC =       6 NIJTAt=       0 NIJTCD=       0 NIJTT =       6
         IJTBeg=       1 IJTEnd=       6 KLTBeg=       1 KLTEnd=       6
         IPTBeg=       1 IPTEnd=       6 IPTBCv=       1 IPTECv=       6
         IZTBeg=       1 IZTEnd=       6 IZTBCv=       1 IZTECv=       6
         IWTBeg=       7 IWTEnd=       6 IWTBCv=       7 IWTECv=       6
         INTBeg=       1 INTEnd=       0 IFTBCv=       1 IFTECv=       6
 NCel replicated for PrismC:     1
 CoulSu:  IncDef=  1024 NBBP=        1076778 NTPThr=   100 NPartT=    1 Incr=        1024 LDynOK=F.
 CoulSu:  NPrtUS=   1 ThrOK=F IAlg=1 NPAlg=1 LenDen=           0 LWGrdD=           0 DoCopy=F.
 Enter PrismC: JobTyp=21 DoJE=F Cont=F.
 PrismC:  IPart=     0 DynPar=F LinDyn=F Incr=        1024 UseFst=F UseS4=T IGathr=2.
 PrismC was handed    33402670 working-precision words and  1467 shell-pairs
[...]
     26  0.133327D+00
     27  0.000000D+00  0.260234D-01
     28 -0.413071D-03  0.000000D+00  0.563464D-01
     29  0.800349D-03  0.000000D+00  0.000000D+00  0.364267D+00
     30  0.000000D+00 -0.423648D-02  0.000000D+00  0.000000D+00  0.260234D-01
     31  0.752166D-03  0.000000D+00  0.102786D-02 -0.190156D-04  0.000000D+00
     32  0.375876D-03  0.000000D+00  0.413071D-03  0.800349D-03  0.000000D+00
     33  0.000000D+00  0.181965D-03  0.000000D+00  0.000000D+00 -0.423648D-02
     34 -0.764522D-04  0.000000D+00  0.532216D-04  0.193312D-03  0.000000D+00
     35  0.643516D-04  0.000000D+00 -0.131102D-02 -0.592087D-03  0.000000D+00
     36  0.000000D+00 -0.114812D-02  0.000000D+00  0.000000D+00  0.181965D-03
               31            32            33            34            35 
     31  0.287287D+00
     32 -0.133334D+00  0.133327D+00
     33  0.000000D+00  0.000000D+00  0.260234D-01
     34  0.686595D-03 -0.216043D-03  0.000000D+00  0.287287D+00
     35  0.216043D-03  0.114161D-02  0.000000D+00  0.133334D+00  0.133327D+00
     36  0.000000D+00  0.000000D+00 -0.423648D-02  0.000000D+00  0.000000D+00
               36 
     36  0.260234D-01
 FormGI is forming the generalized inverse of G from B-inverse, IUseBI=4.
 Leave Link  716 at Wed Mar 18 11:36:32 2015, MaxMem=    33554432 cpu:         0.1
 (Enter /usr/local/research/Gaussian09/g09-revD.01/g09/l103.exe)

 GradGradGradGradGradGradGradGradGradGradGradGradGradGradGradGradGradGrad
 Berny optimization.
 Red2BG is reusing G-inverse.
 Internal  Forces:  Max     0.000274705 RMS     0.000097763
 Search for a local minimum.
 Step number   1 out of a maximum of    2
 All quantities printed in internal units (Hartrees-Bohrs-Radians)
 Second derivative matrix not updated -- analytic derivatives used.
 ITU=  0
     Eigenvalues ---    0.01769   0.01769   0.01908   0.02445   0.02445
     Eigenvalues ---    0.02702   0.02977   0.02977   0.03059   0.10712
     Eigenvalues ---    0.11096   0.11096   0.11880   0.12386   0.12386
     Eigenvalues ---    0.19056   0.19290   0.19290   0.30392   0.36349
     Eigenvalues ---    0.36349   0.36521   0.36543   0.36543   0.36726
     Eigenvalues ---    0.43224   0.43224   0.49439   0.49439   0.53163
 Angle between quadratic step and forces=   6.63 degrees.
 Linear search not attempted -- first point.
 Iteration  1 RMS(Cart)=  0.00031727 RMS(Int)=  0.00000000
 Iteration  2 RMS(Cart)=  0.00000000 RMS(Int)=  0.00000000
 ITry= 1 IFail=0 DXMaxC= 9.34D-04 DCOld= 1.00D+10 DXMaxT= 3.00D-01 DXLimC= 3.00D+00 Rises=F
 ClnCor:  largest displacement from symmetrization is 4.66D-13 for atom     5.
 Variable       Old X    -DE/DX   Delta X   Delta X   Delta X     New X
                                 (Linear)    (Quad)   (Total)
    R1        2.63582   0.00010   0.00000   0.00018   0.00018   2.63600
    R2        2.63582   0.00010   0.00000   0.00018   0.00018   2.63600
    R3        2.06474   0.00027   0.00000   0.00075   0.00075   2.06549
    R4        2.63582   0.00010   0.00000   0.00018   0.00018   2.63600
    R5        2.06474   0.00027   0.00000   0.00075   0.00075   2.06549
    R6        2.63582   0.00010   0.00000   0.00018   0.00018   2.63600
    R7        2.06474   0.00027   0.00000   0.00075   0.00075   2.06549
    R8        2.63582   0.00010   0.00000   0.00018   0.00018   2.63600
    R9        2.06474   0.00027   0.00000   0.00075   0.00075   2.06549
   R10        2.63582   0.00010   0.00000   0.00018   0.00018   2.63600
   R11        2.06474   0.00027   0.00000   0.00075   0.00075   2.06549
   R12        2.06474   0.00027   0.00000   0.00075   0.00075   2.06549
    A1        2.09440   0.00000   0.00000   0.00000   0.00000   2.09440
    A2        2.09440   0.00000   0.00000   0.00000   0.00000   2.09440
    A3        2.09440   0.00000   0.00000   0.00000   0.00000   2.09440
    A4        2.09440   0.00000   0.00000   0.00000   0.00000   2.09440
    A5        2.09440   0.00000   0.00000   0.00000   0.00000   2.09440
    A6        2.09440   0.00000   0.00000   0.00000   0.00000   2.09440
    A7        2.09440   0.00000   0.00000   0.00000   0.00000   2.09440
    A8        2.09440   0.00000   0.00000   0.00000   0.00000   2.09440
    A9        2.09440   0.00000   0.00000   0.00000   0.00000   2.09440
   A10        2.09440   0.00000   0.00000   0.00000   0.00000   2.09440
   A11        2.09440   0.00000   0.00000   0.00000   0.00000   2.09440
   A12        2.09440   0.00000   0.00000   0.00000   0.00000   2.09440
   A13        2.09440   0.00000   0.00000   0.00000   0.00000   2.09440
   A14        2.09440   0.00000   0.00000   0.00000   0.00000   2.09440
   A15        2.09440   0.00000   0.00000   0.00000   0.00000   2.09440
   A16        2.09440   0.00000   0.00000   0.00000   0.00000   2.09440
   A17        2.09440   0.00000   0.00000   0.00000   0.00000   2.09440
   A18        2.09440   0.00000   0.00000   0.00000   0.00000   2.09440
    D1        0.00000   0.00000   0.00000   0.00000   0.00000   0.00000
    D2        3.14159   0.00000   0.00000   0.00000   0.00000   3.14159
    D3        3.14159   0.00000   0.00000   0.00000   0.00000   3.14159
    D4        0.00000   0.00000   0.00000   0.00000   0.00000   0.00000
    D5        0.00000   0.00000   0.00000   0.00000   0.00000   0.00000
    D6        3.14159   0.00000   0.00000   0.00000   0.00000   3.14159
    D7        3.14159   0.00000   0.00000   0.00000   0.00000   3.14159
    D8        0.00000   0.00000   0.00000   0.00000   0.00000   0.00000
    D9        0.00000   0.00000   0.00000   0.00000   0.00000   0.00000
   D10        3.14159   0.00000   0.00000   0.00000   0.00000   3.14159
   D11        3.14159   0.00000   0.00000   0.00000   0.00000   3.14159
   D12        0.00000   0.00000   0.00000   0.00000   0.00000   0.00000
   D13        0.00000   0.00000   0.00000   0.00000   0.00000   0.00000
   D14        3.14159   0.00000   0.00000   0.00000   0.00000   3.14159
   D15        3.14159   0.00000   0.00000   0.00000   0.00000   3.14159
   D16        0.00000   0.00000   0.00000   0.00000   0.00000   0.00000
   D17        0.00000   0.00000   0.00000   0.00000   0.00000   0.00000
   D18        3.14159   0.00000   0.00000   0.00000   0.00000   3.14159
   D19        3.14159   0.00000   0.00000   0.00000   0.00000   3.14159
   D20        0.00000   0.00000   0.00000   0.00000   0.00000   0.00000
   D21        0.00000   0.00000   0.00000   0.00000   0.00000   0.00000
   D22        3.14159   0.00000   0.00000   0.00000   0.00000   3.14159
   D23        3.14159   0.00000   0.00000   0.00000   0.00000   3.14159
   D24        0.00000   0.00000   0.00000   0.00000   0.00000   0.00000
         Item               Value     Threshold  Converged?
 Maximum Force            0.000275     0.000450     YES
 RMS     Force            0.000098     0.000300     YES
 Maximum Displacement     0.000934     0.001800     YES
 RMS     Displacement     0.000317     0.001200     YES
 Predicted change in Energy=-6.740417D-07
 Optimization completed.
    -- Stationary point found.
                           ----------------------------
                           !   Optimized Parameters   !
                           ! (Angstroms and Degrees)  !
 --------------------------                            --------------------------
 ! Name  Definition              Value          Derivative Info.                !
 --------------------------------------------------------------------------------
 ! R1    R(1,2)                  1.3948         -DE/DX =    0.0001              !
 ! R2    R(1,6)                  1.3948         -DE/DX =    0.0001              !
 ! R3    R(1,7)                  1.0926         -DE/DX =    0.0003              !
 ! R4    R(2,3)                  1.3948         -DE/DX =    0.0001              !
 ! R5    R(2,8)                  1.0926         -DE/DX =    0.0003              !
 ! R6    R(3,4)                  1.3948         -DE/DX =    0.0001              !
 ! R7    R(3,9)                  1.0926         -DE/DX =    0.0003              !
 ! R8    R(4,5)                  1.3948         -DE/DX =    0.0001              !
 ! R9    R(4,10)                 1.0926         -DE/DX =    0.0003              !
 ! R10   R(5,6)                  1.3948         -DE/DX =    0.0001              !
 ! R11   R(5,11)                 1.0926         -DE/DX =    0.0003              !
 ! R12   R(6,12)                 1.0926         -DE/DX =    0.0003              !
 ! A1    A(2,1,6)              120.0            -DE/DX =    0.0                 !
 ! A2    A(2,1,7)              120.0            -DE/DX =    0.0                 !
 ! A3    A(6,1,7)              120.0            -DE/DX =    0.0                 !
 ! A4    A(1,2,3)              120.0            -DE/DX =    0.0                 !
 ! A5    A(1,2,8)              120.0            -DE/DX =    0.0                 !
 ! A6    A(3,2,8)              120.0            -DE/DX =    0.0                 !
 ! A7    A(2,3,4)              120.0            -DE/DX =    0.0                 !
 ! A8    A(2,3,9)              120.0            -DE/DX =    0.0                 !
 ! A9    A(4,3,9)              120.0            -DE/DX =    0.0                 !
 ! A10   A(3,4,5)              120.0            -DE/DX =    0.0                 !
 ! A11   A(3,4,10)             120.0            -DE/DX =    0.0                 !
 ! A12   A(5,4,10)             120.0            -DE/DX =    0.0                 !
 ! A13   A(4,5,6)              120.0            -DE/DX =    0.0                 !
 ! A14   A(4,5,11)             120.0            -DE/DX =    0.0                 !
 ! A15   A(6,5,11)             120.0            -DE/DX =    0.0                 !
 ! A16   A(1,6,5)              120.0            -DE/DX =    0.0                 !
 ! A17   A(1,6,12)             120.0            -DE/DX =    0.0                 !
 ! A18   A(5,6,12)             120.0            -DE/DX =    0.0                 !
 ! D1    D(6,1,2,3)              0.0            -DE/DX =    0.0                 !
 ! D2    D(6,1,2,8)            180.0            -DE/DX =    0.0                 !
 ! D3    D(7,1,2,3)            180.0            -DE/DX =    0.0                 !
 ! D4    D(7,1,2,8)              0.0            -DE/DX =    0.0                 !
 ! D5    D(2,1,6,5)              0.0            -DE/DX =    0.0                 !
 ! D6    D(2,1,6,12)           180.0            -DE/DX =    0.0                 !
 ! D7    D(7,1,6,5)            180.0            -DE/DX =    0.0                 !
 ! D8    D(7,1,6,12)             0.0            -DE/DX =    0.0                 !
 ! D9    D(1,2,3,4)              0.0            -DE/DX =    0.0                 !
 ! D10   D(1,2,3,9)            180.0            -DE/DX =    0.0                 !
 ! D11   D(8,2,3,4)            180.0            -DE/DX =    0.0                 !
 ! D12   D(8,2,3,9)              0.0            -DE/DX =    0.0                 !
 ! D13   D(2,3,4,5)              0.0            -DE/DX =    0.0                 !
 ! D14   D(2,3,4,10)           180.0            -DE/DX =    0.0                 !
 ! D15   D(9,3,4,5)            180.0            -DE/DX =    0.0                 !
 ! D16   D(9,3,4,10)             0.0            -DE/DX =    0.0                 !
 ! D17   D(3,4,5,6)              0.0            -DE/DX =    0.0                 !
 ! D18   D(3,4,5,11)           180.0            -DE/DX =    0.0                 !
 ! D19   D(10,4,5,6)           180.0            -DE/DX =    0.0                 !
 ! D20   D(10,4,5,11)            0.0            -DE/DX =    0.0                 !
 ! D21   D(4,5,6,1)              0.0            -DE/DX =    0.0                 !
 ! D22   D(4,5,6,12)           180.0            -DE/DX =    0.0                 !
 ! D23   D(11,5,6,1)           180.0            -DE/DX =    0.0                 !
 ! D24   D(11,5,6,12)            0.0            -DE/DX =    0.0                 !
 --------------------------------------------------------------------------------
 GradGradGradGradGradGradGradGradGradGradGradGradGradGradGradGradGradGrad

 Leave Link  103 at Wed Mar 18 11:36:32 2015, MaxMem=    33554432 cpu:         0.0
 (Enter /usr/local/research/Gaussian09/g09-revD.01/g09/l9999.exe)

 Test job not archived.
 1\1\GINC-HEISENBERG\Freq\RPBE1PBE\def2SVP\C6H6\LEIN\18-Mar-2015\0\\#P 
 Geom=AllCheck Guess=TCheck SCRF=Check Test GenChk RPBE1PBE/def2SVP Fre
 q\\-- Benzene --\\0,1\C,0.0000000027,1.3948137434,0.\C,-1.207944134,0.
 697406874,0.\C,-1.2079441367,-0.6974068694,0.\C,-0.0000000027,-1.39481
 37434,0.\C,1.207944134,-0.697406874,0.\C,1.2079441367,0.6974068694,0.\
 H,0.0000000048,2.48742651,0.\H,-2.1541745453,1.2437132591,0.\H,-2.1541
 745501,-1.2437132508,0.\H,-0.0000000048,-2.48742651,0.\H,2.1541745453,
 -1.2437132591,0.\H,2.1541745501,1.2437132508,0.\\Version=EM64L-G09RevD
 .01\State=1-A1G\HF=-231.8020611\RMSD=0.000e+00\RMSF=1.323e-04\ZeroPoin
 t=0.1012604\Thermal=0.1056334\Dipole=0.,0.,0.\DipoleDeriv=-0.0747987,0
 .,0.,0.,0.0846225,0.,0.,0.,-0.1227154,0.0447397,-0.0690525,0.,-0.06902
 4,-0.0349768,0.,0.,0.,-0.1227268,0.0447397,0.0690525,0.,0.069024,-0.03
 49768,0.,0.,0.,-0.1227268,-0.0747987,0.,0.,0.,0.0846225,0.,0.,0.,-0.12
 27154,0.0447397,-0.0690525,0.,-0.069024,-0.0349768,0.,0.,0.,-0.1227268
 ,0.0447397,0.0690525,0.,0.069024,-0.0349768,0.,0.,0.,-0.1227268,0.0704
 418,0.,0.,0.,-0.0801816,0.,0.,0.,0.122729,-0.0425298,0.0652274,0.,0.06
 52153,0.0327878,0.,0.,0.,0.1227302,-0.0425298,-0.0652274,0.,-0.0652153
 ,0.0327878,0.,0.,0.,0.1227302,0.0704418,0.,0.,0.,-0.0801816,0.,0.,0.,0
 .122729,-0.0425298,0.0652274,0.,0.0652153,0.0327878,0.,0.,0.,0.1227302
 ,-0.0425298,-0.0652274,0.,-0.0652153,0.0327878,0.,0.,0.,0.1227302\Pola
 r=73.0290573,0.,73.0281457,0.,0.,27.9212751\PG=D06H [3C2'(H1C1.C1H1)]\
 NImag=0\\0.69953632,0.,0.76114866,0.,0.,0.14152439,-0.30495600,-0.1359
 8419,0.,0.74574557,-0.06800121,-0.18718497,0.,-0.02667893,0.71493940,0
 .,0.,-0.06761229,0.,0.,0.14152439,0.03595462,-0.02803948,0.,-0.1282994
 6,-0.03399149,0.,0.74574557,-0.07874259,-0.02569604,0.,0.03399149,-0.3
 6384151,0.,0.02667893,0.71493940,0.,0.,0.00944134,0.,0.,-0.06761229,0.
 ,0.,0.14152439,-0.07250958,0.,0.,0.03595462,0.07874259,0.,-0.30495600,
 0.06800121,0.,0.69953632,0.,-0.00117572,0.,0.02803948,-0.02569604,0.,0
 .13598419,-0.18718497,0.,0.,0.76114866,0.,0.,-0.00841535,0.,0.,0.00944
 134,0.,0.,-0.06761229,0.,0.,0.14152439,0.03595462,0.02803948,0.,-0.019
 00918,-0.03088847,0.,-0.05652137,0.02535155,0.,-0.30495600,-0.13598419
 ,0.,0.74574557,0.07874259,-0.02569604,0.,-0.03088847,-0.05467611,0.,-0
 .02535155,0.06677994,0.,-0.06800121,-0.18718497,0.,-0.02667893,0.71493
 940,0.,0.,0.00944134,0.,0.,-0.00841535,0.,0.,0.00944134,0.,0.,-0.06761
 229,0.,0.,0.14152439,-0.30495600,0.13598419,0.,-0.05652137,-0.02535155
 ,0.,-0.01900918,0.03088847,0.,0.03595462,-0.02803948,0.,-0.12829946,-0
 .03399149,0.,0.74574557,0.06800121,-0.18718497,0.,0.02535155,0.0667799
 4,0.,0.03088847,-0.05467611,0.,-0.07874259,-0.02569604,0.,0.03399149,-
 0.36384151,0.,0.02667893,0.71493940,0.,0.,-0.06761229,0.,0.,0.00944134
 ,0.,0.,-0.00841535,0.,0.,0.00944134,0.,0.,-0.06761229,0.,0.,0.14152439
 ,-0.05815623,0.,0.,0.00481880,-0.02747928,0.,-0.00442943,-0.00235539,0
 .,-0.00123956,0.,0.,-0.00442943,0.00235539,0.,0.00481880,0.02747928,0.
 ,0.05634637,0.,-0.34633220,0.,0.00407028,-0.01017688,0.,-0.00321139,0.
 00059292,0.,0.,0.00088341,0.,0.00321139,0.00059292,0.,-0.00407028,-0.0
 1017688,0.,0.,0.36426718,0.,0.,-0.03810827,0.,0.,0.00379081,0.,0.,0.00
 735075,0.,0.,-0.00094155,0.,0.,0.00735075,0.,0.,0.00379081,0.,0.,0.026
 02343,-0.01656435,0.01641585,0.,-0.27428821,0.12478386,0.,0.00370843,-
 0.00342921,0.,0.00174781,-0.00035505,0.,0.00035267,-0.00091927,0.,-0.0
 0307315,-0.00399443,0.,0.00102786,-0.00001902,0.,0.28728698,-0.0151337
 1,0.01120627,0.,0.12478386,-0.13020022,0.,0.02812035,-0.00906651,0.,-0
 .00121105,-0.00558433,0.,-0.00091927,-0.00070882,0.,-0.00313843,-0.000
 76336,0.,0.00041307,0.00080035,0.,-0.13333362,0.13332657,0.,0.,0.00379
 081,0.,0.,-0.03810827,0.,0.,0.00379081,0.,0.,0.00735075,0.,0.,-0.00094
 155,0.,0.,0.00735075,0.,0.,-0.00423648,0.,0.,0.02602343,0.00174781,0.0
 0035505,0.,0.00370843,0.00342921,0.,-0.27428821,-0.12478386,0.,-0.0165
 6435,-0.01641585,0.,-0.00307315,0.00399443,0.,0.00035267,0.00091927,0.
 ,0.00005322,0.00019331,0.,0.00068659,-0.00021604,0.,0.28728698,0.00121
 105,-0.00558433,0.,-0.02812035,-0.00906651,0.,-0.12478386,-0.13020022,
 0.,0.01513371,0.01120627,0.,0.00313843,-0.00076336,0.,0.00091927,-0.00
 070882,0.,-0.00131102,-0.00059209,0.,0.00021604,0.00114161,0.,0.133333
 62,0.13332657,0.,0.,0.00735075,0.,0.,0.00379081,0.,0.,-0.03810827,0.,0
 .,0.00379081,0.,0.,0.00735075,0.,0.,-0.00094155,0.,0.,0.00018197,0.,0.
 ,-0.00423648,0.,0.,0.02602343,-0.00123956,0.,0.,-0.00442943,0.00235539
 ,0.,0.00481880,0.02747928,0.,-0.05815623,0.,0.,0.00481880,-0.02747928,
 0.,-0.00442943,-0.00235539,0.,0.00010849,0.,0.,0.00005322,0.00131102,0
 .,0.00102786,-0.00041307,0.,0.05634637,0.,0.00088341,0.,0.00321139,0.0
 0059292,0.,-0.00407028,-0.01017688,0.,0.,-0.34633220,0.,0.00407028,-0.
 01017688,0.,-0.00321139,0.00059292,0.,0.,-0.00006807,0.,-0.00019331,-0
 .00059209,0.,0.00001902,0.00080035,0.,0.,0.36426718,0.,0.,-0.00094155,
 0.,0.,0.00735075,0.,0.,0.00379081,0.,0.,-0.03810827,0.,0.,0.00379081,0
 .,0.,0.00735075,0.,0.,-0.00114812,0.,0.,0.00018197,0.,0.,-0.00423648,0
 .,0.,0.02602343,0.00174781,-0.00035505,0.,0.00035267,-0.00091927,0.,-0
 .00307315,-0.00399443,0.,-0.01656435,0.01641585,0.,-0.27428821,0.12478
 386,0.,0.00370843,-0.00342921,0.,0.00005322,-0.00019331,0.,-0.00002393
 ,0.00007645,0.,-0.00091474,0.00075217,0.,0.00102786,-0.00001902,0.,0.2
 8728698,-0.00121105,-0.00558433,0.,-0.00091927,-0.00070882,0.,-0.00313
 843,-0.00076336,0.,-0.01513371,0.01120627,0.,0.12478386,-0.13020022,0.
 ,0.02812035,-0.00906651,0.,0.00131102,-0.00059209,0.,0.00007645,0.0000
 6435,0.,-0.00075217,0.00037588,0.,0.00041307,0.00080035,0.,-0.13333362
 ,0.13332657,0.,0.,0.00735075,0.,0.,-0.00094155,0.,0.,0.00735075,0.,0.,
 0.00379081,0.,0.,-0.03810827,0.,0.,0.00379081,0.,0.,0.00018197,0.,0.,-
 0.00114812,0.,0.,0.00018197,0.,0.,-0.00423648,0.,0.,0.02602343,-0.0165
 6435,-0.01641585,0.,-0.00307315,0.00399443,0.,0.00035267,0.00091927,0.
 ,0.00174781,0.00035505,0.,0.00370843,0.00342921,0.,-0.27428821,-0.1247
 8386,0.,0.00102786,0.00001902,0.,-0.00091474,-0.00075217,0.,-0.0000239
 3,-0.00007645,0.,0.00005322,0.00019331,0.,0.00068659,-0.00021604,0.,0.
 28728698,0.01513371,0.01120627,0.,0.00313843,-0.00076336,0.,0.00091927
 ,-0.00070882,0.,0.00121105,-0.00558433,0.,-0.02812035,-0.00906651,0.,-
 0.12478386,-0.13020022,0.,-0.00041307,0.00080035,0.,0.00075217,0.00037
 588,0.,-0.00007645,0.00006435,0.,-0.00131102,-0.00059209,0.,0.00021604
 ,0.00114161,0.,0.13333362,0.13332657,0.,0.,0.00379081,0.,0.,0.00735075
 ,0.,0.,-0.00094155,0.,0.,0.00735075,0.,0.,0.00379081,0.,0.,-0.03810827
 ,0.,0.,-0.00423648,0.,0.,0.00018197,0.,0.,-0.00114812,0.,0.,0.00018197
 ,0.,0.,-0.00423648,0.,0.,0.02602343\\0.,0.00017196,0.,-0.00014893,0.00
 008598,0.,-0.00014893,-0.00008598,0.,0.,-0.00017196,0.,0.00014893,-0.0
 0008598,0.,0.00014893,0.00008598,0.,0.,-0.00027471,0.,0.00023790,-0.00
 013735,0.,0.00023790,0.00013735,0.,0.,0.00027471,0.,-0.00023790,0.0001
 3735,0.,-0.00023790,-0.00013735,0.\\\@


 LET US LEARN TO DREAM, GENTLEMEN, THEN PERHAPS WE SHALL
 DISCOVER THE TRUTH;  BUT LET US BEWARE OF PUBLISHING
 OUR DREAMS ABROAD BEFORE THEY HAVE BEEN SCRUTINIZED
 BY OUR VIGILANT INTELLECT ... LET US ALWAYS ALLOW
 THE FRUIT TO HANG UNTIL IT IS RIPE.  UNRIPE FRUIT
 BRINGS EVEN THE GROWER BUT LITTLE PROFIT; IT DAMAGES
 THE HEALTH OF THOSE WHO CONSUME IT; IT ENDANGERS
 PARTICULARLY THE YOUTH WHO CANNOT YET DISTINGUISH
 BETWEEN RIPE AND UNRIPE FRUIT.

                                  -- KEKULE, 1890
 Job cpu time:       0 days  0 hours  1 minutes 13.6 seconds.
 File lengths (MBytes):  RWF=     10 Int=      0 D2E=      0 Chk=      2 Scr=      1
 Normal termination of Gaussian 09 at Wed Mar 18 11:36:32 2015.
