 Entering Gaussian System, Link 0=g09
 Initial command:
 /usr/local/research/Gaussian09/g09-revD.01/g09/l1.exe "/scratch/Gau-3670.inp" -scrdir="/scratch/"
 Entering Link 1 = /usr/local/research/Gaussian09/g09-revD.01/g09/l1.exe PID=      3672.
  
 Copyright (c) 1988,1990,1992,1993,1995,1998,2003,2009,2013,
            Gaussian, Inc.  All Rights Reserved.
  
 This is part of the Gaussian(R) 09 program.  It is based on
 the Gaussian(R) 03 system (copyright 2003, Gaussian, Inc.),
 the Gaussian(R) 98 system (copyright 1998, Gaussian, Inc.),
 the Gaussian(R) 94 system (copyright 1995, Gaussian, Inc.),
 the Gaussian 92(TM) system (copyright 1992, Gaussian, Inc.),
 the Gaussian 90(TM) system (copyright 1990, Gaussian, Inc.),
 the Gaussian 88(TM) system (copyright 1988, Gaussian, Inc.),
 the Gaussian 86(TM) system (copyright 1986, Carnegie Mellon
 University), and the Gaussian 82(TM) system (copyright 1983,
 Carnegie Mellon University). Gaussian is a federally registered
 trademark of Gaussian, Inc.
  
 This software contains proprietary and confidential information,
 including trade secrets, belonging to Gaussian, Inc.
  
 This software is provided under written license and may be
 used, copied, transmitted, or stored only in accord with that
 written license.
  
 The following legend is applicable only to US Government
 contracts under FAR:
  
                    RESTRICTED RIGHTS LEGEND
  
 Use, reproduction and disclosure by the US Government is
 subject to restrictions as set forth in subparagraphs (a)
 and (c) of the Commercial Computer Software - Restricted
 Rights clause in FAR 52.227-19.
  
 Gaussian, Inc.
 340 Quinnipiac St., Bldg. 40, Wallingford CT 06492
  
  
 ---------------------------------------------------------------
 Warning -- This program may not be used in any manner that
 competes with the business of Gaussian, Inc. or will provide
 assistance to any competitor of Gaussian, Inc.  The licensee
 of this program is prohibited from giving any competitor of
 Gaussian, Inc. access to this program.  By using this program,
 the user acknowledges that Gaussian, Inc. is engaged in the
 business of creating and licensing software in the field of
 computational chemistry and represents and warrants to the
 licensee that it is not a competitor of Gaussian, Inc. and that
 it will not use this program in any manner prohibited above.
 ---------------------------------------------------------------
  

 Cite this work as:
 Gaussian 09, Revision D.01,
 M. J. Frisch, G. W. Trucks, H. B. Schlegel, G. E. Scuseria, 
 M. A. Robb, J. R. Cheeseman, G. Scalmani, V. Barone, B. Mennucci, 
 G. A. Petersson, H. Nakatsuji, M. Caricato, X. Li, H. P. Hratchian, 
 A. F. Izmaylov, J. Bloino, G. Zheng, J. L. Sonnenberg, M. Hada, 
 M. Ehara, K. Toyota, R. Fukuda, J. Hasegawa, M. Ishida, T. Nakajima, 
 Y. Honda, O. Kitao, H. Nakai, T. Vreven, J. A. Montgomery, Jr., 
 J. E. Peralta, F. Ogliaro, M. Bearpark, J. J. Heyd, E. Brothers, 
 K. N. Kudin, V. N. Staroverov, T. Keith, R. Kobayashi, J. Normand, 
 K. Raghavachari, A. Rendell, J. C. Burant, S. S. Iyengar, J. Tomasi, 
 M. Cossi, N. Rega, J. M. Millam, M. Klene, J. E. Knox, J. B. Cross, 
 V. Bakken, C. Adamo, J. Jaramillo, R. Gomperts, R. E. Stratmann, 
 O. Yazyev, A. J. Austin, R. Cammi, C. Pomelli, J. W. Ochterski, 
 R. L. Martin, K. Morokuma, V. G. Zakrzewski, G. A. Voth, 
 P. Salvador, J. J. Dannenberg, S. Dapprich, A. D. Daniels, 
 O. Farkas, J. B. Foresman, J. V. Ortiz, J. Cioslowski, 
 and D. J. Fox, Gaussian, Inc., Wallingford CT, 2013.
 
 ******************************************
 Gaussian 09:  EM64L-G09RevD.01 24-Apr-2013
                 2-May-2016 
 ******************************************
 %mem=4096mb
 %NProcShared=4
 Will use up to    4 processors via shared memory.
 %chk=propane.chk
 -----------------------------------------------------
 #p opt freq pbe1pbe def2svp empiricaldispersion=gd3bj
 -----------------------------------------------------
 1/14=-1,18=20,19=15,26=3,38=1/1,3;
 2/9=110,12=2,17=6,18=5,40=1/2;
 3/5=43,7=101,11=2,16=1,25=1,30=1,71=1,74=-13,124=41/1,2,3;
 4//1;
 5/5=2,38=5/2;
 6/7=2,8=2,9=2,10=2,28=1/1;
 7//1,2,3,16;
 1/14=-1,18=20,19=15,26=3/3(2);
 2/9=110/2;
 99//99;
 2/9=110/2;
 3/5=43,7=101,11=2,16=1,25=1,30=1,71=1,74=-13,124=41/1,2,3;
 4/5=5,16=3,69=1/1;
 5/5=2,38=5/2;
 7//1,2,3,16;
 1/14=-1,18=20,19=15,26=3/3(-5);
 2/9=110/2;
 6/7=2,8=2,9=2,10=2,19=2,28=1/1;
 99/9=1/99;
 Leave Link    1 at Mon May  2 15:49:03 2016, MaxMem=   536870912 cpu:         0.2
 (Enter /usr/local/research/Gaussian09/g09-revD.01/g09/l101.exe)
 -----------------------------------
 -- "Propane for torsion testing" --
 -----------------------------------
 Symbolic Z-matrix:
 Charge =  0 Multiplicity = 1
 C                    -2.53012   1.59208   0. 
 H                    -2.17347   0.58327   0. 
 H                    -2.17345   2.09648  -0.87365 
 H                    -3.60012   1.5921    0. 
 C                    -2.01678   2.31804   1.2574 
 H                    -2.37343   3.32685   1.2574 
 H                    -2.37345   1.81364   2.13106 
 C                    -0.47678   2.31802   1.25741 
 H                    -0.1201    2.82225   0.38366 
 H                    -0.12011   2.82258   2.13096 
 H                    -0.12013   1.30921   1.2576 
 
 NAtoms=     11 NQM=       11 NQMF=       0 NMMI=      0 NMMIF=      0
                NMic=       0 NMicF=      0.
                    Isotopes and Nuclear Properties:
 (Nuclear quadrupole moments (NQMom) in fm**2, nuclear magnetic moments (NMagM)
  in nuclear magnetons)

  Atom         1           2           3           4           5           6           7           8           9          10
 IAtWgt=          12           1           1           1          12           1           1          12           1           1
 AtmWgt=  12.0000000   1.0078250   1.0078250   1.0078250  12.0000000   1.0078250   1.0078250  12.0000000   1.0078250   1.0078250
 NucSpn=           0           1           1           1           0           1           1           0           1           1
 AtZEff=   0.0000000   0.0000000   0.0000000   0.0000000   0.0000000   0.0000000   0.0000000   0.0000000   0.0000000   0.0000000
 NQMom=    0.0000000   0.0000000   0.0000000   0.0000000   0.0000000   0.0000000   0.0000000   0.0000000   0.0000000   0.0000000
 NMagM=    0.0000000   2.7928460   2.7928460   2.7928460   0.0000000   2.7928460   2.7928460   0.0000000   2.7928460   2.7928460
 AtZNuc=   6.0000000   1.0000000   1.0000000   1.0000000   6.0000000   1.0000000   1.0000000   6.0000000   1.0000000   1.0000000

  Atom        11
 IAtWgt=           1
 AtmWgt=   1.0078250
 NucSpn=           1
 AtZEff=   0.0000000
 NQMom=    0.0000000
 NMagM=    2.7928460
 AtZNuc=   1.0000000
 Leave Link  101 at Mon May  2 15:49:03 2016, MaxMem=   536870912 cpu:         0.7
 (Enter /usr/local/research/Gaussian09/g09-revD.01/g09/l103.exe)

 GradGradGradGradGradGradGradGradGradGradGradGradGradGradGradGradGradGrad
 Berny optimization.
 Initialization pass.
                           ----------------------------
                           !    Initial Parameters    !
                           ! (Angstroms and Degrees)  !
 --------------------------                            --------------------------
 ! Name  Definition              Value          Derivative Info.                !
 --------------------------------------------------------------------------------
 ! R1    R(1,2)                  1.07           estimate D2E/DX2                !
 ! R2    R(1,3)                  1.07           estimate D2E/DX2                !
 ! R3    R(1,4)                  1.07           estimate D2E/DX2                !
 ! R4    R(1,5)                  1.54           estimate D2E/DX2                !
 ! R5    R(5,6)                  1.07           estimate D2E/DX2                !
 ! R6    R(5,7)                  1.07           estimate D2E/DX2                !
 ! R7    R(5,8)                  1.54           estimate D2E/DX2                !
 ! R8    R(8,9)                  1.07           estimate D2E/DX2                !
 ! R9    R(8,10)                 1.07           estimate D2E/DX2                !
 ! R10   R(8,11)                 1.07           estimate D2E/DX2                !
 ! A1    A(2,1,3)              109.4712         estimate D2E/DX2                !
 ! A2    A(2,1,4)              109.4712         estimate D2E/DX2                !
 ! A3    A(2,1,5)              109.4712         estimate D2E/DX2                !
 ! A4    A(3,1,4)              109.4712         estimate D2E/DX2                !
 ! A5    A(3,1,5)              109.4713         estimate D2E/DX2                !
 ! A6    A(4,1,5)              109.4712         estimate D2E/DX2                !
 ! A7    A(1,5,6)              109.4712         estimate D2E/DX2                !
 ! A8    A(1,5,7)              109.4712         estimate D2E/DX2                !
 ! A9    A(1,5,8)              109.4712         estimate D2E/DX2                !
 ! A10   A(6,5,7)              109.4712         estimate D2E/DX2                !
 ! A11   A(6,5,8)              109.4713         estimate D2E/DX2                !
 ! A12   A(7,5,8)              109.4712         estimate D2E/DX2                !
 ! A13   A(5,8,9)              109.4712         estimate D2E/DX2                !
 ! A14   A(5,8,10)             109.4712         estimate D2E/DX2                !
 ! A15   A(5,8,11)             109.4712         estimate D2E/DX2                !
 ! A16   A(9,8,10)             109.4713         estimate D2E/DX2                !
 ! A17   A(9,8,11)             109.4712         estimate D2E/DX2                !
 ! A18   A(10,8,11)            109.4712         estimate D2E/DX2                !
 ! D1    D(2,1,5,6)            179.9999         estimate D2E/DX2                !
 ! D2    D(2,1,5,7)            -60.0001         estimate D2E/DX2                !
 ! D3    D(2,1,5,8)             59.9999         estimate D2E/DX2                !
 ! D4    D(3,1,5,6)             59.9999         estimate D2E/DX2                !
 ! D5    D(3,1,5,7)            179.9999         estimate D2E/DX2                !
 ! D6    D(3,1,5,8)            -60.0001         estimate D2E/DX2                !
 ! D7    D(4,1,5,6)            -60.0001         estimate D2E/DX2                !
 ! D8    D(4,1,5,7)             59.9999         estimate D2E/DX2                !
 ! D9    D(4,1,5,8)            179.9999         estimate D2E/DX2                !
 ! D10   D(1,5,8,9)             59.989          estimate D2E/DX2                !
 ! D11   D(1,5,8,10)           179.989          estimate D2E/DX2                !
 ! D12   D(1,5,8,11)           -60.011          estimate D2E/DX2                !
 ! D13   D(6,5,8,9)            -60.011          estimate D2E/DX2                !
 ! D14   D(6,5,8,10)            59.989          estimate D2E/DX2                !
 ! D15   D(6,5,8,11)           179.989          estimate D2E/DX2                !
 ! D16   D(7,5,8,9)            179.989          estimate D2E/DX2                !
 ! D17   D(7,5,8,10)           -60.011          estimate D2E/DX2                !
 ! D18   D(7,5,8,11)            59.989          estimate D2E/DX2                !
 --------------------------------------------------------------------------------
 Trust Radius=3.00D-01 FncErr=1.00D-07 GrdErr=1.00D-06
 Number of steps in this run=     56 maximum allowed number of steps=    100.
 GradGradGradGradGradGradGradGradGradGradGradGradGradGradGradGradGradGrad

 Leave Link  103 at Mon May  2 15:49:03 2016, MaxMem=   536870912 cpu:         0.0
 (Enter /usr/local/research/Gaussian09/g09-revD.01/g09/l202.exe)
                          Input orientation:                          
 ---------------------------------------------------------------------
 Center     Atomic      Atomic             Coordinates (Angstroms)
 Number     Number       Type             X           Y           Z
 ---------------------------------------------------------------------
      1          6           0       -2.530120    1.592083    0.000000
      2          1           0       -2.173466    0.583273    0.000000
      3          1           0       -2.173448    2.096481   -0.873652
      4          1           0       -3.600120    1.592096    0.000000
      5          6           0       -2.016778    2.318039    1.257405
      6          1           0       -2.373431    3.326849    1.257404
      7          1           0       -2.373452    1.813641    2.131056
      8          6           0       -0.476778    2.318018    1.257406
      9          1           0       -0.120104    2.822247    0.383657
     10          1           0       -0.120105    2.822584    2.130960
     11          1           0       -0.120125    1.309207    1.257601
 ---------------------------------------------------------------------
                    Distance matrix (angstroms):
                    1          2          3          4          5
     1  C    0.000000
     2  H    1.070000   0.000000
     3  H    1.070000   1.747302   0.000000
     4  H    1.070000   1.747303   1.747303   0.000000
     5  C    1.540000   2.148263   2.148263   2.148263   0.000000
     6  H    2.148263   3.024610   2.468846   2.468846   1.070000
     7  H    2.148263   2.468846   3.024611   2.468845   1.070000
     8  C    2.514809   2.732976   2.732978   3.444314   1.540000
     9  H    2.732888   3.062106   2.514713   3.710927   2.148263
    10  H    3.444314   3.711037   3.710948   4.262112   2.148263
    11  H    2.733067   2.514905   3.062379   3.711058   2.148263
                    6          7          8          9         10
     6  H    0.000000
     7  H    1.747303   0.000000
     8  C    2.148263   2.148263   0.000000
     9  H    2.468915   3.024610   1.070000   0.000000
    10  H    2.468777   2.468914   1.070000   1.747303   0.000000
    11  H    3.024611   2.468777   1.070000   1.747303   1.747303
                   11
    11  H    0.000000
 Stoichiometry    C3H8
 Framework group  C1[X(C3H8)]
 Deg. of freedom    27
 Full point group                 C1      NOp   1
 Largest Abelian subgroup         C1      NOp   1
 Largest concise Abelian subgroup C1      NOp   1
                         Standard orientation:                         
 ---------------------------------------------------------------------
 Center     Atomic      Atomic             Coordinates (Angstroms)
 Number     Number       Type             X           Y           Z
 ---------------------------------------------------------------------
      1          6           0       -1.257405   -0.273575    0.000000
      2          1           0       -1.257403   -0.891341    0.873651
      3          1           0       -1.257406   -0.891339   -0.873652
      4          1           0       -2.131056    0.344189    0.000002
      5          6           0        0.000000    0.615544    0.000000
      6          1           0       -0.000001    1.233309   -0.873651
      7          1           0        0.000000    1.233309    0.873651
      8          6           0        1.257405   -0.273575    0.000000
      9          1           0        1.257307   -0.891477   -0.873554
     10          1           0        2.131056    0.344190   -0.000194
     11          1           0        1.257502   -0.891203    0.873748
 ---------------------------------------------------------------------
 Rotational constants (GHZ):     28.9413730      8.7001334      7.6203171
 Leave Link  202 at Mon May  2 15:49:03 2016, MaxMem=   536870912 cpu:         0.0
 (Enter /usr/local/research/Gaussian09/g09-revD.01/g09/l301.exe)
 Standard basis: def2SVP (5D, 7F)
 Ernie: Thresh=  0.10000D-02 Tol=  0.10000D-05 Strict=F.
 There are    85 symmetry adapted cartesian basis functions of A   symmetry.
 There are    82 symmetry adapted basis functions of A   symmetry.
    82 basis functions,   131 primitive gaussians,    85 cartesian basis functions
    13 alpha electrons       13 beta electrons
       nuclear repulsion energy        83.3207444373 Hartrees.
 IExCor= 1009 DFT=T Ex+Corr=PBE1PBE ExCW=0 ScaHFX=  0.250000
 ScaDFX=  0.750000  0.750000  1.000000  1.000000 ScalE2=  1.000000  1.000000
 IRadAn=      0 IRanWt=     -1 IRanGd=            0 ICorTp=0 IEmpDi=141
 NAtoms=   11 NActive=   11 NUniq=   11 SFac= 1.00D+00 NAtFMM=   60 NAOKFM=F Big=F
 Integral buffers will be    131072 words long.
 Raffenetti 2 integral format.
 Two-electron integral symmetry is turned on.
 R6Disp:  Grimme-D3(BJ) Dispersion energy=       -0.0050168888 Hartrees.
 Nuclear repulsion after empirical dispersion term =       83.3157275485 Hartrees.
 Leave Link  301 at Mon May  2 15:49:03 2016, MaxMem=   536870912 cpu:         0.2
 (Enter /usr/local/research/Gaussian09/g09-revD.01/g09/l302.exe)
 NPDir=0 NMtPBC=     1 NCelOv=     1 NCel=       1 NClECP=     1 NCelD=      1
         NCelK=      1 NCelE2=     1 NClLst=     1 CellRange=     0.0.
 One-electron integrals computed using PRISM.
   1 Symmetry operations used in ECPInt.
 ECPInt:  NShTT=     903 NPrTT=    2989 LenC2=     904 LenP2D=    2747.
 LDataN:  DoStor=T MaxTD1= 4 Len=   56
 NBasis=    82 RedAO= T EigKep=  2.87D-03  NBF=    82
 NBsUse=    82 1.00D-06 EigRej= -1.00D+00 NBFU=    82
 Precomputing XC quadrature grid using
 IXCGrd= 4 IRadAn=           0 IRanWt=          -1 IRanGd=           0 AccXCQ= 0.00D+00.
 Generated NRdTot=       0 NPtTot=           0 NUsed=           0 NTot=          32
 NSgBfM=    85    85    85    85    85 MxSgAt=    11 MxSgA2=    11.
 Leave Link  302 at Mon May  2 15:49:04 2016, MaxMem=   536870912 cpu:         1.0
 (Enter /usr/local/research/Gaussian09/g09-revD.01/g09/l303.exe)
 DipDrv:  MaxL=1.
 Leave Link  303 at Mon May  2 15:49:04 2016, MaxMem=   536870912 cpu:         0.1
 (Enter /usr/local/research/Gaussian09/g09-revD.01/g09/l401.exe)
 ExpMin= 1.22D-01 ExpMax= 1.24D+03 ExpMxC= 1.86D+02 IAcc=1 IRadAn=         1 AccDes= 0.00D+00
 Harris functional with IExCor= 1009 and IRadAn=       1 diagonalized for initial guess.
 HarFok:  IExCor= 1009 AccDes= 0.00D+00 IRadAn=         1 IDoV= 1 UseB2=F ITyADJ=14
 ICtDFT=  3500011 ScaDFX=  1.000000  1.000000  1.000000  1.000000
 FoFCou: FMM=F IPFlag=           0 FMFlag=      100000 FMFlg1=           0
         NFxFlg=           0 DoJE=T BraDBF=F KetDBF=T FulRan=T
         wScrn=  0.000000 ICntrl=     500 IOpCl=  0 I1Cent=   200000004 NGrid=           0
         NMat0=    1 NMatS0=      1 NMatT0=    0 NMatD0=    1 NMtDS0=    0 NMtDT0=    0
 Petite list used in FoFCou.
 Harris En= -119.006633940529    
 JPrj=0 DoOrth=F DoCkMO=F.
 Leave Link  401 at Mon May  2 15:49:04 2016, MaxMem=   536870912 cpu:         1.3
 (Enter /usr/local/research/Gaussian09/g09-revD.01/g09/l502.exe)
 Closed shell SCF:
 Using DIIS extrapolation, IDIIS=  1040.
 Integral symmetry usage will be decided dynamically.
 Keep R1 ints in memory in canonical form, NReq=6740007.
 IVT=       41391 IEndB=       41391 NGot=   536870912 MDV=   531037616
 LenX=   531037616 LenY=   531029950
 Requested convergence on RMS density matrix=1.00D-08 within 128 cycles.
 Requested convergence on MAX density matrix=1.00D-06.
 Requested convergence on             energy=1.00D-06.
 No special actions if energy rises.
 FoFCou: FMM=F IPFlag=           0 FMFlag=           0 FMFlg1=           0
         NFxFlg=           0 DoJE=F BraDBF=F KetDBF=F FulRan=T
         wScrn=  0.000000 ICntrl=     600 IOpCl=  0 I1Cent=           0 NGrid=           0
         NMat0=    1 NMatS0=   3403 NMatT0=    0 NMatD0=    1 NMtDS0=    0 NMtDT0=    0
 Symmetry not used in FoFCou.
 Integral accuracy reduced to 1.0D-05 until final iterations.

 Cycle   1  Pass 0  IDiag  1:
 E= -118.748762463512    
 DIIS: error= 4.21D-02 at cycle   1 NSaved=   1.
 NSaved= 1 IEnMin= 1 EnMin= -118.748762463512     IErMin= 1 ErrMin= 4.21D-02
 ErrMax= 4.21D-02  0.00D+00 EMaxC= 1.00D-01 BMatC= 1.30D-01 BMatP= 1.30D-01
 IDIUse=3 WtCom= 5.79D-01 WtEn= 4.21D-01
 Coeff-Com:  0.100D+01
 Coeff-En:   0.100D+01
 Coeff:      0.100D+01
 Gap=     0.364 Goal=   None    Shift=    0.000
 GapD=    0.364 DampG=1.000 DampE=0.500 DampFc=0.5000 IDamp=-1.
 Damping current iteration by 5.00D-01
 RMSDP=9.35D-03 MaxDP=1.45D-01              OVMax= 1.70D-01

 Cycle   2  Pass 0  IDiag  1:
 E= -118.820086879420     Delta-E=       -0.071324415908 Rises=F Damp=T
 DIIS: error= 7.91D-03 at cycle   2 NSaved=   2.
 NSaved= 2 IEnMin= 2 EnMin= -118.820086879420     IErMin= 2 ErrMin= 7.91D-03
 ErrMax= 7.91D-03  0.00D+00 EMaxC= 1.00D-01 BMatC= 3.35D-03 BMatP= 1.30D-01
 IDIUse=3 WtCom= 9.21D-01 WtEn= 7.91D-02
 Coeff-Com:  0.414D-01 0.959D+00
 Coeff-En:   0.507D-01 0.949D+00
 Coeff:      0.421D-01 0.958D+00
 Gap=     0.417 Goal=   None    Shift=    0.000
 RMSDP=1.33D-03 MaxDP=2.10D-02 DE=-7.13D-02 OVMax= 9.07D-02

 Cycle   3  Pass 0  IDiag  1:
 E= -118.899344613483     Delta-E=       -0.079257734063 Rises=F Damp=F
 DIIS: error= 2.20D-03 at cycle   3 NSaved=   3.
 NSaved= 3 IEnMin= 3 EnMin= -118.899344613483     IErMin= 3 ErrMin= 2.20D-03
 ErrMax= 2.20D-03  0.00D+00 EMaxC= 1.00D-01 BMatC= 3.71D-04 BMatP= 3.35D-03
 IDIUse=3 WtCom= 9.78D-01 WtEn= 2.20D-02
 Coeff-Com: -0.992D-03 0.199D+00 0.802D+00
 Coeff-En:   0.000D+00 0.000D+00 0.100D+01
 Coeff:     -0.970D-03 0.195D+00 0.806D+00
 Gap=     0.413 Goal=   None    Shift=    0.000
 RMSDP=2.96D-04 MaxDP=3.87D-03 DE=-7.93D-02 OVMax= 5.95D-03

 Cycle   4  Pass 0  IDiag  1:
 E= -118.899629345956     Delta-E=       -0.000284732473 Rises=F Damp=F
 DIIS: error= 7.33D-04 at cycle   4 NSaved=   4.
 NSaved= 4 IEnMin= 4 EnMin= -118.899629345956     IErMin= 4 ErrMin= 7.33D-04
 ErrMax= 7.33D-04  0.00D+00 EMaxC= 1.00D-01 BMatC= 6.09D-05 BMatP= 3.71D-04
 IDIUse=3 WtCom= 9.93D-01 WtEn= 7.33D-03
 Coeff-Com: -0.111D-02 0.227D-01 0.292D+00 0.686D+00
 Coeff-En:   0.000D+00 0.000D+00 0.000D+00 0.100D+01
 Coeff:     -0.110D-02 0.225D-01 0.290D+00 0.689D+00
 Gap=     0.413 Goal=   None    Shift=    0.000
 RMSDP=1.00D-04 MaxDP=2.67D-03 DE=-2.85D-04 OVMax= 2.40D-03

 Cycle   5  Pass 0  IDiag  1:
 E= -118.899681911503     Delta-E=       -0.000052565548 Rises=F Damp=F
 DIIS: error= 2.41D-04 at cycle   5 NSaved=   5.
 NSaved= 5 IEnMin= 5 EnMin= -118.899681911503     IErMin= 5 ErrMin= 2.41D-04
 ErrMax= 2.41D-04  0.00D+00 EMaxC= 1.00D-01 BMatC= 6.63D-06 BMatP= 6.09D-05
 IDIUse=3 WtCom= 9.98D-01 WtEn= 2.41D-03
 Coeff-Com: -0.220D-03-0.237D-02 0.801D-01 0.318D+00 0.605D+00
 Coeff-En:   0.000D+00 0.000D+00 0.000D+00 0.000D+00 0.100D+01
 Coeff:     -0.219D-03-0.236D-02 0.799D-01 0.317D+00 0.605D+00
 Gap=     0.413 Goal=   None    Shift=    0.000
 RMSDP=2.91D-05 MaxDP=7.43D-04 DE=-5.26D-05 OVMax= 7.66D-04

 Cycle   6  Pass 0  IDiag  1:
 E= -118.899688344836     Delta-E=       -0.000006433333 Rises=F Damp=F
 DIIS: error= 2.96D-05 at cycle   6 NSaved=   6.
 NSaved= 6 IEnMin= 6 EnMin= -118.899688344836     IErMin= 6 ErrMin= 2.96D-05
 ErrMax= 2.96D-05  0.00D+00 EMaxC= 1.00D-01 BMatC= 3.95D-08 BMatP= 6.63D-06
 IDIUse=1 WtCom= 1.00D+00 WtEn= 0.00D+00
 Coeff-Com: -0.100D-04-0.101D-02 0.163D-01 0.750D-01 0.172D+00 0.738D+00
 Coeff:     -0.100D-04-0.101D-02 0.163D-01 0.750D-01 0.172D+00 0.738D+00
 Gap=     0.413 Goal=   None    Shift=    0.000
 RMSDP=3.78D-06 MaxDP=3.80D-05 DE=-6.43D-06 OVMax= 6.72D-05

 Initial convergence to 1.0D-05 achieved.  Increase integral accuracy.
 Cycle   7  Pass 1  IDiag  1:
 E= -118.899800335695     Delta-E=       -0.000111990858 Rises=F Damp=F
 DIIS: error= 1.08D-05 at cycle   1 NSaved=   1.
 NSaved= 1 IEnMin= 1 EnMin= -118.899800335695     IErMin= 1 ErrMin= 1.08D-05
 ErrMax= 1.08D-05  0.00D+00 EMaxC= 1.00D-01 BMatC= 8.90D-09 BMatP= 8.90D-09
 IDIUse=1 WtCom= 1.00D+00 WtEn= 0.00D+00
 Coeff-Com:  0.100D+01
 Coeff:      0.100D+01
 Gap=     0.413 Goal=   None    Shift=    0.000
 RMSDP=3.78D-06 MaxDP=3.80D-05 DE=-1.12D-04 OVMax= 3.66D-05

 Cycle   8  Pass 1  IDiag  1:
 E= -118.899800348480     Delta-E=       -0.000000012786 Rises=F Damp=F
 DIIS: error= 1.96D-06 at cycle   2 NSaved=   2.
 NSaved= 2 IEnMin= 2 EnMin= -118.899800348480     IErMin= 2 ErrMin= 1.96D-06
 ErrMax= 1.96D-06  0.00D+00 EMaxC= 1.00D-01 BMatC= 2.20D-10 BMatP= 8.90D-09
 IDIUse=1 WtCom= 1.00D+00 WtEn= 0.00D+00
 Coeff-Com: -0.109D-01 0.101D+01
 Coeff:     -0.109D-01 0.101D+01
 Gap=     0.413 Goal=   None    Shift=    0.000
 RMSDP=5.49D-07 MaxDP=9.82D-06 DE=-1.28D-08 OVMax= 8.47D-06

 Cycle   9  Pass 1  IDiag  1:
 E= -118.899800348590     Delta-E=       -0.000000000110 Rises=F Damp=F
 DIIS: error= 1.29D-06 at cycle   3 NSaved=   3.
 NSaved= 3 IEnMin= 3 EnMin= -118.899800348590     IErMin= 3 ErrMin= 1.29D-06
 ErrMax= 1.29D-06  0.00D+00 EMaxC= 1.00D-01 BMatC= 1.62D-10 BMatP= 2.20D-10
 IDIUse=1 WtCom= 1.00D+00 WtEn= 0.00D+00
 Coeff-Com: -0.292D-01 0.474D+00 0.555D+00
 Coeff:     -0.292D-01 0.474D+00 0.555D+00
 Gap=     0.413 Goal=   None    Shift=    0.000
 RMSDP=1.61D-07 MaxDP=2.68D-06 DE=-1.10D-10 OVMax= 4.12D-06

 Cycle  10  Pass 1  IDiag  1:
 E= -118.899800348756     Delta-E=       -0.000000000166 Rises=F Damp=F
 DIIS: error= 1.64D-07 at cycle   4 NSaved=   4.
 NSaved= 4 IEnMin= 4 EnMin= -118.899800348756     IErMin= 4 ErrMin= 1.64D-07
 ErrMax= 1.64D-07  0.00D+00 EMaxC= 1.00D-01 BMatC= 2.77D-12 BMatP= 1.62D-10
 IDIUse=1 WtCom= 1.00D+00 WtEn= 0.00D+00
 Coeff-Com: -0.903D-02 0.110D+00 0.175D+00 0.724D+00
 Coeff:     -0.903D-02 0.110D+00 0.175D+00 0.724D+00
 Gap=     0.413 Goal=   None    Shift=    0.000
 RMSDP=2.47D-08 MaxDP=4.09D-07 DE=-1.66D-10 OVMax= 4.78D-07

 Cycle  11  Pass 1  IDiag  1:
 E= -118.899800348758     Delta-E=       -0.000000000002 Rises=F Damp=F
 DIIS: error= 3.22D-08 at cycle   5 NSaved=   5.
 NSaved= 5 IEnMin= 5 EnMin= -118.899800348758     IErMin= 5 ErrMin= 3.22D-08
 ErrMax= 3.22D-08  0.00D+00 EMaxC= 1.00D-01 BMatC= 8.40D-14 BMatP= 2.77D-12
 IDIUse=1 WtCom= 1.00D+00 WtEn= 0.00D+00
 Coeff-Com: -0.453D-03 0.142D-02 0.105D-01 0.170D+00 0.819D+00
 Coeff:     -0.453D-03 0.142D-02 0.105D-01 0.170D+00 0.819D+00
 Gap=     0.413 Goal=   None    Shift=    0.000
 RMSDP=5.47D-09 MaxDP=6.26D-08 DE=-2.05D-12 OVMax= 8.00D-08

 SCF Done:  E(RPBE1PBE) =  -118.899800349     A.U. after   11 cycles
            NFock= 11  Conv=0.55D-08     -V/T= 2.0106
 KE= 1.176475445314D+02 PE=-4.407072411630D+02 EE= 1.208441687344D+02
 Leave Link  502 at Mon May  2 15:49:08 2016, MaxMem=   536870912 cpu:        15.6
 (Enter /usr/local/research/Gaussian09/g09-revD.01/g09/l601.exe)
 Copying SCF densities to generalized density rwf, IOpCl= 0 IROHF=0.

 **********************************************************************

            Population analysis using the SCF density.

 **********************************************************************

 Orbital symmetries:
       Occupied  (A) (A) (A) (A) (A) (A) (A) (A) (A) (A) (A) (A)
                 (A)
       Virtual   (A) (A) (A) (A) (A) (A) (A) (A) (A) (A) (A) (A)
                 (A) (A) (A) (A) (A) (A) (A) (A) (A) (A) (A) (A)
                 (A) (A) (A) (A) (A) (A) (A) (A) (A) (A) (A) (A)
                 (A) (A) (A) (A) (A) (A) (A) (A) (A) (A) (A) (A)
                 (A) (A) (A) (A) (A) (A) (A) (A) (A) (A) (A) (A)
                 (A) (A) (A) (A) (A) (A) (A) (A) (A)
 The electronic state is 1-A.
 Alpha  occ. eigenvalues --  -10.21913 -10.21026 -10.21024  -0.79706  -0.69381
 Alpha  occ. eigenvalues --   -0.59770  -0.47601  -0.44942  -0.41020  -0.39537
 Alpha  occ. eigenvalues --   -0.34734  -0.34471  -0.33941
 Alpha virt. eigenvalues --    0.07357   0.12372   0.12624   0.12662   0.15487
 Alpha virt. eigenvalues --    0.17204   0.18150   0.19284   0.22044   0.25521
 Alpha virt. eigenvalues --    0.42009   0.44811   0.45286   0.45497   0.46775
 Alpha virt. eigenvalues --    0.63636   0.63774   0.64197   0.67365   0.67640
 Alpha virt. eigenvalues --    0.71418   0.71505   0.72865   0.72982   0.73509
 Alpha virt. eigenvalues --    0.74568   0.75115   0.79364   1.00971   1.04794
 Alpha virt. eigenvalues --    1.12521   1.14807   1.30733   1.37163   1.38862
 Alpha virt. eigenvalues --    1.55931   1.56534   1.60364   1.72941   1.76088
 Alpha virt. eigenvalues --    1.79860   1.81794   1.81841   1.84382   1.85962
 Alpha virt. eigenvalues --    1.87210   1.90649   1.90731   1.91049   2.03839
 Alpha virt. eigenvalues --    2.08270   2.14610   2.24696   2.30105   2.38379
 Alpha virt. eigenvalues --    2.44703   2.46154   2.53306   2.62802   2.66343
 Alpha virt. eigenvalues --    2.66677   2.78441   2.91022   2.93607   2.98025
 Alpha virt. eigenvalues --    2.98325   3.06587   3.11040   3.13811
          Condensed to atoms (all electrons):
               1          2          3          4          5          6
     1  C    4.564076   0.401639   0.401640   0.386436   0.434756  -0.025496
     2  H    0.401639   0.644237  -0.024405  -0.022061  -0.029651   0.008727
     3  H    0.401640  -0.024405   0.644234  -0.022061  -0.029648  -0.009095
     4  H    0.386436  -0.022061  -0.022061   0.645948  -0.018294  -0.005739
     5  C    0.434756  -0.029651  -0.029648  -0.018294   4.642778   0.385121
     6  H   -0.025496   0.008727  -0.009095  -0.005739   0.385121   0.673725
     7  H   -0.025496  -0.009095   0.008727  -0.005739   0.385120  -0.029092
     8  C   -0.069521  -0.005784  -0.005788   0.008490   0.434756  -0.025496
     9  H   -0.005788  -0.001956   0.007395   0.000084  -0.029653  -0.009092
    10  H    0.008490   0.000083   0.000083  -0.000574  -0.018294  -0.005742
    11  H   -0.005785   0.007393  -0.001955   0.000083  -0.029647   0.008727
               7          8          9         10         11
     1  C   -0.025496  -0.069521  -0.005788   0.008490  -0.005785
     2  H   -0.009095  -0.005784  -0.001956   0.000083   0.007393
     3  H    0.008727  -0.005788   0.007395   0.000083  -0.001955
     4  H   -0.005739   0.008490   0.000084  -0.000574   0.000083
     5  C    0.385120   0.434756  -0.029653  -0.018294  -0.029647
     6  H   -0.029092  -0.025496  -0.009092  -0.005742   0.008727
     7  H    0.673725  -0.025496   0.008727  -0.005736  -0.009098
     8  C   -0.025496   4.564076   0.401641   0.386436   0.401638
     9  H    0.008727   0.401641   0.644236  -0.022061  -0.024405
    10  H   -0.005736   0.386436  -0.022061   0.645948  -0.022061
    11  H   -0.009098   0.401638  -0.024405  -0.022061   0.644235
 Mulliken charges:
               1
     1  C   -0.064951
     2  H    0.030872
     3  H    0.030873
     4  H    0.033427
     5  C   -0.127347
     6  H    0.033452
     7  H    0.033453
     8  C   -0.064951
     9  H    0.030871
    10  H    0.033427
    11  H    0.030874
 Sum of Mulliken charges =   0.00000
 Mulliken charges with hydrogens summed into heavy atoms:
               1
     1  C    0.030221
     5  C   -0.060442
     8  C    0.030221
 Electronic spatial extent (au):  <R**2>=            221.5743
 Charge=              0.0000 electrons
 Dipole moment (field-independent basis, Debye):
    X=              0.0000    Y=              0.0617    Z=              0.0000  Tot=              0.0617
 Quadrupole moment (field-independent basis, Debye-Ang):
   XX=            -22.1163   YY=            -21.5806   ZZ=            -20.9504
   XY=              0.0000   XZ=              0.0000   YZ=              0.0000
 Traceless Quadrupole moment (field-independent basis, Debye-Ang):
   XX=             -0.5672   YY=             -0.0315   ZZ=              0.5987
   XY=              0.0000   XZ=              0.0000   YZ=              0.0000
 Octapole moment (field-independent basis, Debye-Ang**2):
  XXX=              0.0000  YYY=              0.0786  ZZZ=              0.0003  XYY=              0.0000
  XXY=              1.5956  XXZ=             -0.0001  XZZ=              0.0000  YZZ=             -0.3745
  YYZ=             -0.0002  XYZ=             -0.0001
 Hexadecapole moment (field-independent basis, Debye-Ang**3):
 XXXX=           -194.1093 YYYY=            -69.8435 ZZZZ=            -41.2582 XXXY=              0.0000
 XXXZ=             -0.0004 YYYX=              0.0000 YYYZ=              0.0003 ZZZX=              0.0005
 ZZZY=             -0.0001 XXYY=            -43.5813 XXZZ=            -39.7021 YYZZ=            -16.6800
 XXYZ=             -0.0004 YYXZ=             -0.0002 ZZXY=              0.0000
 N-N= 8.331572754845D+01 E-N=-4.407072421115D+02  KE= 1.176475445314D+02
 No NMR shielding tensors so no spin-rotation constants.
 Leave Link  601 at Mon May  2 15:49:08 2016, MaxMem=   536870912 cpu:         0.8
 (Enter /usr/local/research/Gaussian09/g09-revD.01/g09/l701.exe)
 Compute integral first derivatives.
 ... and contract with generalized density number  0.
 R6Disp: Adding Grimme-D3(BJ) dispersion energy 1st derivatives to the gradient.
   1 Symmetry operations used in ECPInt.
 ECPInt:  NShTT=     903 NPrTT=    2989 LenC2=     904 LenP2D=    2747.
 LDataN:  DoStor=T MaxTD1= 5 Len=  102
 Leave Link  701 at Mon May  2 15:49:08 2016, MaxMem=   536870912 cpu:         0.8
 (Enter /usr/local/research/Gaussian09/g09-revD.01/g09/l702.exe)
 L702 exits ... SP integral derivatives will be done elsewhere.
 Leave Link  702 at Mon May  2 15:49:08 2016, MaxMem=   536870912 cpu:         0.1
 (Enter /usr/local/research/Gaussian09/g09-revD.01/g09/l703.exe)
 Compute integral first derivatives, UseDBF=F ICtDFT=           0.
 Integral derivatives from FoFJK, PRISM(SPDF).
 Calling FoFJK, ICntrl=      2127 FMM=F ISym2X=0 I1Cent= 0 IOpClX= 0 NMat=1 NMatS=1 NMatT=0.
 FoFJK:  IHMeth= 1 ICntrl=    2127 DoSepK=F KAlg= 0 I1Cent=   0 FoldK=F
 IRaf=         0 NMat=   1 IRICut=       1 DoRegI=T DoRafI=F ISym2E= 0.
 FoFCou: FMM=F IPFlag=           0 FMFlag=      100000 FMFlg1=         800
         NFxFlg=           0 DoJE=F BraDBF=F KetDBF=F FulRan=T
         wScrn=  0.000000 ICntrl=    2127 IOpCl=  0 I1Cent=           0 NGrid=           0
         NMat0=    1 NMatS0=      1 NMatT0=    0 NMatD0=    1 NMtDS0=    0 NMtDT0=    0
 Symmetry not used in FoFCou.
 Leave Link  703 at Mon May  2 15:49:10 2016, MaxMem=   536870912 cpu:         6.2
 (Enter /usr/local/research/Gaussian09/g09-revD.01/g09/l716.exe)
 Dipole        =-4.77456918D-09 2.42712589D-02 1.42154018D-06
 ***** Axes restored to original set *****
 -------------------------------------------------------------------
 Center     Atomic                   Forces (Hartrees/Bohr)
 Number     Number              X              Y              Z
 -------------------------------------------------------------------
      1        6           0.005636442    0.018089689    0.031334204
      2        1           0.005900928   -0.021032567   -0.002801175
      3        1           0.005901202    0.008090454   -0.019614935
      4        1          -0.021849448   -0.002373489   -0.004111097
      5        6           0.026548036   -0.018772267   -0.032515254
      6        1          -0.009187254    0.020702307    0.003050193
      7        1          -0.009187662   -0.007708302    0.019454284
      8        6          -0.035990614    0.003373568    0.005842738
      9        1           0.010234820    0.009619919   -0.016962796
     10        1           0.011758981    0.009511031    0.016468145
     11        1           0.010234567   -0.019500342   -0.000144309
 -------------------------------------------------------------------
 Cartesian Forces:  Max     0.035990614 RMS     0.016312018
 Leave Link  716 at Mon May  2 15:49:10 2016, MaxMem=   536870912 cpu:         0.1
 (Enter /usr/local/research/Gaussian09/g09-revD.01/g09/l103.exe)

 GradGradGradGradGradGradGradGradGradGradGradGradGradGradGradGradGradGrad
 Berny optimization.
 FormGI is forming the generalized inverse of G from B-inverse, IUseBI=4.
 Internal  Forces:  Max     0.022580712 RMS     0.009569561
 Search for a local minimum.
 Step number   1 out of a maximum of   56
 All quantities printed in internal units (Hartrees-Bohrs-Radians)
 RMS Force = .95696D-02 SwitMx=.10000D-02 MixMth= 1
 Mixed Optimization -- RFO/linear search
 Second derivative matrix not updated -- first step.
 ITU=  0
     Eigenvalues ---    0.00237   0.00237   0.03840   0.04896   0.05720
     Eigenvalues ---    0.05720   0.05720   0.05720   0.07655   0.11701
     Eigenvalues ---    0.16000   0.16000   0.16000   0.16000   0.16000
     Eigenvalues ---    0.16000   0.21948   0.28519   0.28519   0.37230
     Eigenvalues ---    0.37230   0.37230   0.37230   0.37230   0.37230
     Eigenvalues ---    0.37230   0.37230
 RFO step:  Lambda=-1.21602284D-02 EMin= 2.36824062D-03
 Linear search not attempted -- first point.
 Iteration  1 RMS(Cart)=  0.03623183 RMS(Int)=  0.00059735
 Iteration  2 RMS(Cart)=  0.00045636 RMS(Int)=  0.00018098
 Iteration  3 RMS(Cart)=  0.00000031 RMS(Int)=  0.00018098
 ITry= 1 IFail=0 DXMaxC= 9.34D-02 DCOld= 1.00D+10 DXMaxT= 3.00D-01 DXLimC= 3.00D+00 Rises=F
 Variable       Old X    -DE/DX   Delta X   Delta X   Delta X     New X
                                 (Linear)    (Quad)   (Total)
    R1        2.02201   0.02180   0.00000   0.05669   0.05669   2.07870
    R2        2.02201   0.02180   0.00000   0.05669   0.05669   2.07870
    R3        2.02201   0.02185   0.00000   0.05683   0.05683   2.07884
    R4        2.91018  -0.00376   0.00000  -0.01265  -0.01265   2.89753
    R5        2.02201   0.02258   0.00000   0.05873   0.05873   2.08074
    R6        2.02201   0.02258   0.00000   0.05873   0.05873   2.08074
    R7        2.91018  -0.00376   0.00000  -0.01265  -0.01265   2.89753
    R8        2.02201   0.02180   0.00000   0.05669   0.05669   2.07870
    R9        2.02201   0.02185   0.00000   0.05683   0.05683   2.07884
   R10        2.02201   0.02180   0.00000   0.05669   0.05669   2.07870
    A1        1.91063  -0.00324   0.00000  -0.02209  -0.02214   1.88849
    A2        1.91063  -0.00396   0.00000  -0.02139  -0.02172   1.88891
    A3        1.91063   0.00277   0.00000   0.01525   0.01505   1.92568
    A4        1.91063  -0.00396   0.00000  -0.02139  -0.02172   1.88891
    A5        1.91063   0.00277   0.00000   0.01525   0.01504   1.92568
    A6        1.91063   0.00564   0.00000   0.03437   0.03402   1.94465
    A7        1.91063  -0.00214   0.00000  -0.00367  -0.00399   1.90664
    A8        1.91063  -0.00214   0.00000  -0.00368  -0.00399   1.90664
    A9        1.91063   0.00902   0.00000   0.04894   0.04857   1.95920
   A10        1.91063  -0.00047   0.00000  -0.03425  -0.03440   1.87624
   A11        1.91063  -0.00214   0.00000  -0.00367  -0.00399   1.90664
   A12        1.91063  -0.00214   0.00000  -0.00368  -0.00399   1.90664
   A13        1.91063   0.00277   0.00000   0.01525   0.01504   1.92568
   A14        1.91063   0.00564   0.00000   0.03437   0.03402   1.94465
   A15        1.91063   0.00277   0.00000   0.01525   0.01505   1.92568
   A16        1.91063  -0.00396   0.00000  -0.02139  -0.02172   1.88891
   A17        1.91063  -0.00324   0.00000  -0.02209  -0.02214   1.88849
   A18        1.91063  -0.00396   0.00000  -0.02139  -0.02172   1.88891
    D1        3.14159   0.00130   0.00000   0.01903   0.01898  -3.12261
    D2       -1.04720  -0.00189   0.00000  -0.02741  -0.02752  -1.07471
    D3        1.04720  -0.00029   0.00000  -0.00420  -0.00427   1.04293
    D4        1.04720   0.00189   0.00000   0.02741   0.02751   1.07470
    D5        3.14159  -0.00130   0.00000  -0.01904  -0.01899   3.12260
    D6       -1.04720   0.00029   0.00000   0.00418   0.00425  -1.04295
    D7       -1.04720   0.00160   0.00000   0.02322   0.02325  -1.02395
    D8        1.04720  -0.00160   0.00000  -0.02323  -0.02325   1.02394
    D9        3.14159   0.00000   0.00000  -0.00001  -0.00001   3.14158
   D10        1.04700  -0.00029   0.00000  -0.00415  -0.00422   1.04278
   D11        3.14140   0.00000   0.00000   0.00004   0.00004   3.14144
   D12       -1.04739   0.00029   0.00000   0.00423   0.00430  -1.04309
   D13       -1.04739  -0.00189   0.00000  -0.02738  -0.02748  -1.07487
   D14        1.04701  -0.00159   0.00000  -0.02319  -0.02322   1.02379
   D15        3.14140  -0.00130   0.00000  -0.01900  -0.01895   3.12245
   D16        3.14140   0.00131   0.00000   0.01907   0.01902  -3.12276
   D17       -1.04739   0.00160   0.00000   0.02326   0.02328  -1.02411
   D18        1.04700   0.00189   0.00000   0.02744   0.02755   1.07455
         Item               Value     Threshold  Converged?
 Maximum Force            0.022581     0.000450     NO 
 RMS     Force            0.009570     0.000300     NO 
 Maximum Displacement     0.093417     0.001800     NO 
 RMS     Displacement     0.035995     0.001200     NO 
 Predicted change in Energy=-6.344586D-03
 Lowest energy point so far.  Saving SCF results.
 GradGradGradGradGradGradGradGradGradGradGradGradGradGradGradGradGradGrad

 Leave Link  103 at Mon May  2 15:49:10 2016, MaxMem=   536870912 cpu:         0.3
 (Enter /usr/local/research/Gaussian09/g09-revD.01/g09/l202.exe)
                          Input orientation:                          
 ---------------------------------------------------------------------
 Center     Atomic      Atomic             Coordinates (Angstroms)
 Number     Number       Type             X           Y           Z
 ---------------------------------------------------------------------
      1          6           0       -2.549533    1.592244    0.000291
      2          1           0       -2.200196    0.549464   -0.023720
      3          1           0       -2.200181    2.092823   -0.914792
      4          1           0       -3.649555    1.586901   -0.008982
      5          6           0       -2.003474    2.308638    1.241106
      6          1           0       -2.379357    3.343442    1.257497
      7          1           0       -2.379382    1.805452    2.145471
      8          6           0       -0.470621    2.327225    1.273351
      9          1           0       -0.075877    2.843705    0.385980
     10          1           0       -0.093844    2.844135    2.168341
     11          1           0       -0.075911    1.300487    1.277296
 ---------------------------------------------------------------------
                    Distance matrix (angstroms):
                    1          2          3          4          5
     1  C    0.000000
     2  H    1.100001   0.000000
     3  H    1.100001   1.782124   0.000000
     4  H    1.100074   1.782451   1.782451   0.000000
     5  C    1.533304   2.175586   2.175584   2.189339   0.000000
     6  H    2.162458   3.078949   2.512965   2.510540   1.101080
     7  H    2.162454   2.512967   3.078945   2.510531   1.101080
     8  C    2.546126   2.798974   2.798981   3.506861   1.533304
     9  H    2.798908   3.153431   2.601635   3.808769   2.175584
    10  H    3.506861   3.808853   3.808784   4.354819   2.189339
    11  H    2.799048   2.601781   3.153660   3.808868   2.175586
                    6          7          8          9         10
     6  H    0.000000
     7  H    1.775925   0.000000
     8  C    2.162457   2.162454   0.000000
     9  H    2.513026   3.078946   1.100001   0.000000
    10  H    2.510480   2.510591   1.100074   1.782451   0.000000
    11  H    3.078948   2.512906   1.100001   1.782124   1.782451
                   11
    11  H    0.000000
 Stoichiometry    C3H8
 Framework group  C1[X(C3H8)]
 Deg. of freedom    27
 Full point group                 C1      NOp   1
 RotChk:  IX=0 Diff= 1.73D-05
 Largest Abelian subgroup         C1      NOp   1
 Largest concise Abelian subgroup C1      NOp   1
                         Standard orientation:                         
 ---------------------------------------------------------------------
 Center     Atomic      Atomic             Coordinates (Angstroms)
 Number     Number       Type             X           Y           Z
 ---------------------------------------------------------------------
      1          6           0       -1.273063   -0.262079    0.000000
      2          1           0       -1.300850   -0.906478    0.891056
      3          1           0       -1.300858   -0.906462   -0.891068
      4          1           0       -2.177409    0.364275    0.000010
      5          6           0        0.000000    0.592516    0.000000
      6          1           0        0.000000    1.243597   -0.887960
      7          1           0        0.000000    1.243588    0.887966
      8          6           0        1.273063   -0.262079    0.000000
      9          1           0        1.300777   -0.906582   -0.890983
     10          1           0        2.177409    0.364275   -0.000158
     11          1           0        1.300931   -0.906357    0.891141
 ---------------------------------------------------------------------
 Rotational constants (GHZ):     29.1370392      8.4138801      7.4507158
 Leave Link  202 at Mon May  2 15:49:10 2016, MaxMem=   536870912 cpu:         0.0
 (Enter /usr/local/research/Gaussian09/g09-revD.01/g09/l301.exe)
 Standard basis: def2SVP (5D, 7F)
 Ernie: Thresh=  0.10000D-02 Tol=  0.10000D-05 Strict=F.
 There are    85 symmetry adapted cartesian basis functions of A   symmetry.
 There are    82 symmetry adapted basis functions of A   symmetry.
    82 basis functions,   131 primitive gaussians,    85 cartesian basis functions
    13 alpha electrons       13 beta electrons
       nuclear repulsion energy        82.2475562717 Hartrees.
 IExCor= 1009 DFT=T Ex+Corr=PBE1PBE ExCW=0 ScaHFX=  0.250000
 ScaDFX=  0.750000  0.750000  1.000000  1.000000 ScalE2=  1.000000  1.000000
 IRadAn=      0 IRanWt=     -1 IRanGd=            0 ICorTp=0 IEmpDi=141
 NAtoms=   11 NActive=   11 NUniq=   11 SFac= 1.00D+00 NAtFMM=   60 NAOKFM=F Big=F
 Integral buffers will be    131072 words long.
 Raffenetti 2 integral format.
 Two-electron integral symmetry is turned on.
 R6Disp:  Grimme-D3(BJ) Dispersion energy=       -0.0049601175 Hartrees.
 Nuclear repulsion after empirical dispersion term =       82.2425961541 Hartrees.
 Leave Link  301 at Mon May  2 15:49:10 2016, MaxMem=   536870912 cpu:         0.2
 (Enter /usr/local/research/Gaussian09/g09-revD.01/g09/l302.exe)
 NPDir=0 NMtPBC=     1 NCelOv=     1 NCel=       1 NClECP=     1 NCelD=      1
         NCelK=      1 NCelE2=     1 NClLst=     1 CellRange=     0.0.
 One-electron integrals computed using PRISM.
   1 Symmetry operations used in ECPInt.
 ECPInt:  NShTT=     903 NPrTT=    2989 LenC2=     904 LenP2D=    2737.
 LDataN:  DoStor=T MaxTD1= 4 Len=   56
 NBasis=    82 RedAO= T EigKep=  3.02D-03  NBF=    82
 NBsUse=    82 1.00D-06 EigRej= -1.00D+00 NBFU=    82
 Precomputing XC quadrature grid using
 IXCGrd= 4 IRadAn=           0 IRanWt=          -1 IRanGd=           0 AccXCQ= 0.00D+00.
 Generated NRdTot=       0 NPtTot=           0 NUsed=           0 NTot=          32
 NSgBfM=    85    85    85    85    85 MxSgAt=    11 MxSgA2=    11.
 Leave Link  302 at Mon May  2 15:49:10 2016, MaxMem=   536870912 cpu:         1.0
 (Enter /usr/local/research/Gaussian09/g09-revD.01/g09/l303.exe)
 DipDrv:  MaxL=1.
 Leave Link  303 at Mon May  2 15:49:11 2016, MaxMem=   536870912 cpu:         0.1
 (Enter /usr/local/research/Gaussian09/g09-revD.01/g09/l401.exe)
 Initial guess from the checkpoint file:  "propane.chk"
 B after Tr=     0.000000    0.000000    0.000000
         Rot=    1.000000   -0.000005    0.000001    0.000000 Ang=   0.00 deg.
 Guess basis will be translated and rotated to current coordinates.
 JPrj=2 DoOrth=T DoCkMO=T.
 Generating alternative initial guess.
 ExpMin= 1.22D-01 ExpMax= 1.24D+03 ExpMxC= 1.86D+02 IAcc=1 IRadAn=         1 AccDes= 0.00D+00
 Harris functional with IExCor= 1009 and IRadAn=       1 diagonalized for initial guess.
 HarFok:  IExCor= 1009 AccDes= 0.00D+00 IRadAn=         1 IDoV= 1 UseB2=F ITyADJ=14
 ICtDFT=  3500011 ScaDFX=  1.000000  1.000000  1.000000  1.000000
 FoFCou: FMM=F IPFlag=           0 FMFlag=      100000 FMFlg1=           0
         NFxFlg=           0 DoJE=T BraDBF=F KetDBF=T FulRan=T
         wScrn=  0.000000 ICntrl=     500 IOpCl=  0 I1Cent=   200000004 NGrid=           0
         NMat0=    1 NMatS0=      1 NMatT0=    0 NMatD0=    1 NMtDS0=    0 NMtDT0=    0
 Petite list used in FoFCou.
 Harris En= -118.998065366001    
 Leave Link  401 at Mon May  2 15:49:11 2016, MaxMem=   536870912 cpu:         1.6
 (Enter /usr/local/research/Gaussian09/g09-revD.01/g09/l502.exe)
 Closed shell SCF:
 Using DIIS extrapolation, IDIIS=  1040.
 Integral symmetry usage will be decided dynamically.
 Keep R1 ints in memory in canonical form, NReq=6740007.
 IVT=       41391 IEndB=       41391 NGot=   536870912 MDV=   531037616
 LenX=   531037616 LenY=   531029950
 Requested convergence on RMS density matrix=1.00D-08 within 128 cycles.
 Requested convergence on MAX density matrix=1.00D-06.
 Requested convergence on             energy=1.00D-06.
 No special actions if energy rises.
 FoFCou: FMM=F IPFlag=           0 FMFlag=           0 FMFlg1=           0
         NFxFlg=           0 DoJE=F BraDBF=F KetDBF=F FulRan=T
         wScrn=  0.000000 ICntrl=     600 IOpCl=  0 I1Cent=           0 NGrid=           0
         NMat0=    1 NMatS0=   3403 NMatT0=    0 NMatD0=    1 NMtDS0=    0 NMtDT0=    0
 Symmetry not used in FoFCou.
 Integral accuracy reduced to 1.0D-05 until final iterations.

 Cycle   1  Pass 0  IDiag  1:
 E= -118.904826067165    
 DIIS: error= 3.21D-03 at cycle   1 NSaved=   1.
 NSaved= 1 IEnMin= 1 EnMin= -118.904826067165     IErMin= 1 ErrMin= 3.21D-03
 ErrMax= 3.21D-03  0.00D+00 EMaxC= 1.00D-01 BMatC= 1.03D-03 BMatP= 1.03D-03
 IDIUse=3 WtCom= 9.68D-01 WtEn= 3.21D-02
 Coeff-Com:  0.100D+01
 Coeff-En:   0.100D+01
 Coeff:      0.100D+01
 Gap=     0.661 Goal=   None    Shift=    0.000
 GapD=    0.661 DampG=2.000 DampE=1.000 DampFc=2.0000 IDamp=-1.
 RMSDP=7.72D-04 MaxDP=1.03D-02              OVMax= 1.16D-02

 Cycle   2  Pass 0  IDiag  1:
 E= -118.906120771730     Delta-E=       -0.001294704565 Rises=F Damp=F
 DIIS: error= 1.21D-03 at cycle   2 NSaved=   2.
 NSaved= 2 IEnMin= 2 EnMin= -118.906120771730     IErMin= 2 ErrMin= 1.21D-03
 ErrMax= 1.21D-03  0.00D+00 EMaxC= 1.00D-01 BMatC= 9.78D-05 BMatP= 1.03D-03
 IDIUse=3 WtCom= 9.88D-01 WtEn= 1.21D-02
 Coeff-Com:  0.118D+00 0.882D+00
 Coeff-En:   0.000D+00 0.100D+01
 Coeff:      0.116D+00 0.884D+00
 Gap=     0.407 Goal=   None    Shift=    0.000
 RMSDP=2.12D-04 MaxDP=4.29D-03 DE=-1.29D-03 OVMax= 4.23D-03

 Cycle   3  Pass 0  IDiag  1:
 E= -118.906163229922     Delta-E=       -0.000042458192 Rises=F Damp=F
 DIIS: error= 9.28D-04 at cycle   3 NSaved=   3.
 NSaved= 3 IEnMin= 3 EnMin= -118.906163229922     IErMin= 3 ErrMin= 9.28D-04
 ErrMax= 9.28D-04  0.00D+00 EMaxC= 1.00D-01 BMatC= 6.47D-05 BMatP= 9.78D-05
 IDIUse=3 WtCom= 9.91D-01 WtEn= 9.28D-03
 Coeff-Com: -0.499D-02 0.447D+00 0.558D+00
 Coeff-En:   0.000D+00 0.374D+00 0.626D+00
 Coeff:     -0.495D-02 0.446D+00 0.559D+00
 Gap=     0.406 Goal=   None    Shift=    0.000
 RMSDP=8.95D-05 MaxDP=1.79D-03 DE=-4.25D-05 OVMax= 1.86D-03

 Cycle   4  Pass 0  IDiag  1:
 E= -118.906231059737     Delta-E=       -0.000067829815 Rises=F Damp=F
 DIIS: error= 9.57D-05 at cycle   4 NSaved=   4.
 NSaved= 4 IEnMin= 4 EnMin= -118.906231059737     IErMin= 4 ErrMin= 9.57D-05
 ErrMax= 9.57D-05  0.00D+00 EMaxC= 1.00D-01 BMatC= 4.71D-07 BMatP= 6.47D-05
 IDIUse=1 WtCom= 1.00D+00 WtEn= 0.00D+00
 Coeff-Com: -0.546D-02 0.884D-01 0.139D+00 0.778D+00
 Coeff:     -0.546D-02 0.884D-01 0.139D+00 0.778D+00
 Gap=     0.406 Goal=   None    Shift=    0.000
 RMSDP=1.04D-05 MaxDP=1.16D-04 DE=-6.78D-05 OVMax= 2.43D-04

 Cycle   5  Pass 0  IDiag  1:
 E= -118.906231498618     Delta-E=       -0.000000438881 Rises=F Damp=F
 DIIS: error= 1.85D-05 at cycle   5 NSaved=   5.
 NSaved= 5 IEnMin= 5 EnMin= -118.906231498618     IErMin= 5 ErrMin= 1.85D-05
 ErrMax= 1.85D-05  0.00D+00 EMaxC= 1.00D-01 BMatC= 2.86D-08 BMatP= 4.71D-07
 IDIUse=1 WtCom= 1.00D+00 WtEn= 0.00D+00
 Coeff-Com: -0.134D-02 0.941D-02 0.177D-01 0.227D+00 0.747D+00
 Coeff:     -0.134D-02 0.941D-02 0.177D-01 0.227D+00 0.747D+00
 Gap=     0.406 Goal=   None    Shift=    0.000
 RMSDP=2.67D-06 MaxDP=5.56D-05 DE=-4.39D-07 OVMax= 6.02D-05

 Initial convergence to 1.0D-05 achieved.  Increase integral accuracy.
 Cycle   6  Pass 1  IDiag  1:
 E= -118.906289329314     Delta-E=       -0.000057830697 Rises=F Damp=F
 DIIS: error= 1.09D-05 at cycle   1 NSaved=   1.
 NSaved= 1 IEnMin= 1 EnMin= -118.906289329314     IErMin= 1 ErrMin= 1.09D-05
 ErrMax= 1.09D-05  0.00D+00 EMaxC= 1.00D-01 BMatC= 1.26D-08 BMatP= 1.26D-08
 IDIUse=1 WtCom= 1.00D+00 WtEn= 0.00D+00
 Coeff-Com:  0.100D+01
 Coeff:      0.100D+01
 Gap=     0.406 Goal=   None    Shift=    0.000
 RMSDP=2.67D-06 MaxDP=5.56D-05 DE=-5.78D-05 OVMax= 5.51D-05

 Cycle   7  Pass 1  IDiag  1:
 E= -118.906289339066     Delta-E=       -0.000000009751 Rises=F Damp=F
 DIIS: error= 9.28D-06 at cycle   2 NSaved=   2.
 NSaved= 2 IEnMin= 2 EnMin= -118.906289339066     IErMin= 2 ErrMin= 9.28D-06
 ErrMax= 9.28D-06  0.00D+00 EMaxC= 1.00D-01 BMatC= 7.21D-09 BMatP= 1.26D-08
 IDIUse=1 WtCom= 1.00D+00 WtEn= 0.00D+00
 Coeff-Com:  0.414D+00 0.586D+00
 Coeff:      0.414D+00 0.586D+00
 Gap=     0.406 Goal=   None    Shift=    0.000
 RMSDP=1.14D-06 MaxDP=3.44D-05 DE=-9.75D-09 OVMax= 2.30D-05

 Cycle   8  Pass 1  IDiag  1:
 E= -118.906289345659     Delta-E=       -0.000000006593 Rises=F Damp=F
 DIIS: error= 2.59D-06 at cycle   3 NSaved=   3.
 NSaved= 3 IEnMin= 3 EnMin= -118.906289345659     IErMin= 3 ErrMin= 2.59D-06
 ErrMax= 2.59D-06  0.00D+00 EMaxC= 1.00D-01 BMatC= 5.08D-10 BMatP= 7.21D-09
 IDIUse=1 WtCom= 1.00D+00 WtEn= 0.00D+00
 Coeff-Com: -0.308D-01 0.192D+00 0.838D+00
 Coeff:     -0.308D-01 0.192D+00 0.838D+00
 Gap=     0.406 Goal=   None    Shift=    0.000
 RMSDP=3.17D-07 MaxDP=6.07D-06 DE=-6.59D-09 OVMax= 5.97D-06

 Cycle   9  Pass 1  IDiag  1:
 E= -118.906289346178     Delta-E=       -0.000000000520 Rises=F Damp=F
 DIIS: error= 2.42D-07 at cycle   4 NSaved=   4.
 NSaved= 4 IEnMin= 4 EnMin= -118.906289346178     IErMin= 4 ErrMin= 2.42D-07
 ErrMax= 2.42D-07  0.00D+00 EMaxC= 1.00D-01 BMatC= 3.76D-12 BMatP= 5.08D-10
 IDIUse=1 WtCom= 1.00D+00 WtEn= 0.00D+00
 Coeff-Com: -0.115D-01 0.517D-01 0.251D+00 0.709D+00
 Coeff:     -0.115D-01 0.517D-01 0.251D+00 0.709D+00
 Gap=     0.406 Goal=   None    Shift=    0.000
 RMSDP=3.19D-08 MaxDP=4.77D-07 DE=-5.20D-10 OVMax= 6.78D-07

 Cycle  10  Pass 1  IDiag  1:
 E= -118.906289346181     Delta-E=       -0.000000000003 Rises=F Damp=F
 DIIS: error= 8.63D-08 at cycle   5 NSaved=   5.
 NSaved= 5 IEnMin= 5 EnMin= -118.906289346181     IErMin= 5 ErrMin= 8.63D-08
 ErrMax= 8.63D-08  0.00D+00 EMaxC= 1.00D-01 BMatC= 6.09D-13 BMatP= 3.76D-12
 IDIUse=1 WtCom= 1.00D+00 WtEn= 0.00D+00
 Coeff-Com: -0.324D-02 0.112D-01 0.620D-01 0.326D+00 0.604D+00
 Coeff:     -0.324D-02 0.112D-01 0.620D-01 0.326D+00 0.604D+00
 Gap=     0.406 Goal=   None    Shift=    0.000
 RMSDP=9.41D-09 MaxDP=1.88D-07 DE=-3.13D-12 OVMax= 2.11D-07

 SCF Done:  E(RPBE1PBE) =  -118.906289346     A.U. after   10 cycles
            NFock= 10  Conv=0.94D-08     -V/T= 2.0133
 KE= 1.173411244153D+02 PE=-4.383358717697D+02 EE= 1.198458618541D+02
 Leave Link  502 at Mon May  2 15:49:15 2016, MaxMem=   536870912 cpu:        14.5
 (Enter /usr/local/research/Gaussian09/g09-revD.01/g09/l701.exe)
 Compute integral first derivatives.
 ... and contract with generalized density number  0.
 R6Disp: Adding Grimme-D3(BJ) dispersion energy 1st derivatives to the gradient.
   1 Symmetry operations used in ECPInt.
 ECPInt:  NShTT=     903 NPrTT=    2989 LenC2=     904 LenP2D=    2737.
 LDataN:  DoStor=T MaxTD1= 5 Len=  102
 Leave Link  701 at Mon May  2 15:49:15 2016, MaxMem=   536870912 cpu:         0.8
 (Enter /usr/local/research/Gaussian09/g09-revD.01/g09/l702.exe)
 L702 exits ... SP integral derivatives will be done elsewhere.
 Leave Link  702 at Mon May  2 15:49:15 2016, MaxMem=   536870912 cpu:         0.1
 (Enter /usr/local/research/Gaussian09/g09-revD.01/g09/l703.exe)
 Compute integral first derivatives, UseDBF=F ICtDFT=           0.
 Integral derivatives from FoFJK, PRISM(SPDF).
 Calling FoFJK, ICntrl=      2127 FMM=F ISym2X=0 I1Cent= 0 IOpClX= 0 NMat=1 NMatS=1 NMatT=0.
 FoFJK:  IHMeth= 1 ICntrl=    2127 DoSepK=F KAlg= 0 I1Cent=   0 FoldK=F
 IRaf=         0 NMat=   1 IRICut=       1 DoRegI=T DoRafI=F ISym2E= 0.
 FoFCou: FMM=F IPFlag=           0 FMFlag=      100000 FMFlg1=         800
         NFxFlg=           0 DoJE=F BraDBF=F KetDBF=F FulRan=T
         wScrn=  0.000000 ICntrl=    2127 IOpCl=  0 I1Cent=           0 NGrid=           0
         NMat0=    1 NMatS0=      1 NMatT0=    0 NMatD0=    1 NMtDS0=    0 NMtDT0=    0
 Symmetry not used in FoFCou.
 Leave Link  703 at Mon May  2 15:49:16 2016, MaxMem=   536870912 cpu:         6.1
 (Enter /usr/local/research/Gaussian09/g09-revD.01/g09/l716.exe)
 Dipole        = 2.25556152D-09 2.04100248D-02 1.47530265D-06
 ***** Axes restored to original set *****
 -------------------------------------------------------------------
 Center     Atomic                   Forces (Hartrees/Bohr)
 Number     Number              X              Y              Z
 -------------------------------------------------------------------
      1        6           0.002406976    0.004715570    0.008168258
      2        1          -0.000255381   -0.001211857   -0.001487091
      3        1          -0.000255432   -0.000681916   -0.001793167
      4        1          -0.000262906   -0.000430190   -0.000744995
      5        6           0.006234057   -0.004408606   -0.007635017
      6        1          -0.001406301    0.000756546    0.001859093
      7        1          -0.001406433    0.001233008    0.001585486
      8        6          -0.009694629    0.000437419    0.000757486
      9        1           0.001870684    0.000070235   -0.000490912
     10        1           0.000898719   -0.000019971   -0.000033388
     11        1           0.001870646   -0.000460237   -0.000185754
 -------------------------------------------------------------------
 Cartesian Forces:  Max     0.009694629 RMS     0.003184780
 Leave Link  716 at Mon May  2 15:49:17 2016, MaxMem=   536870912 cpu:         0.1
 (Enter /usr/local/research/Gaussian09/g09-revD.01/g09/l103.exe)

 GradGradGradGradGradGradGradGradGradGradGradGradGradGradGradGradGradGrad
 Berny optimization.
 Using GEDIIS/GDIIS optimizer.
 FormGI is forming the generalized inverse of G from B-inverse, IUseBI=4.
 Internal  Forces:  Max     0.005051763 RMS     0.001394979
 Search for a local minimum.
 Step number   2 out of a maximum of   56
 All quantities printed in internal units (Hartrees-Bohrs-Radians)
 RMS Force = .13950D-02 SwitMx=.10000D-02 MixMth= 1
 Mixed Optimization -- RFO/linear search
 Update second derivatives using D2CorX and points    1    2
 DE= -6.49D-03 DEPred=-6.34D-03 R= 1.02D+00
 TightC=F SS=  1.41D+00  RLast= 2.07D-01 DXNew= 5.0454D-01 6.2161D-01
 Trust test= 1.02D+00 RLast= 2.07D-01 DXMaxT set to 5.05D-01
 ITU=  1  0
 Use linear search instead of GDIIS.
     Eigenvalues ---    0.00237   0.00237   0.03502   0.04685   0.05430
     Eigenvalues ---    0.05430   0.05555   0.05561   0.08173   0.12100
     Eigenvalues ---    0.15141   0.16000   0.16000   0.16000   0.16000
     Eigenvalues ---    0.16098   0.21948   0.27292   0.28519   0.37119
     Eigenvalues ---    0.37230   0.37230   0.37230   0.37230   0.37230
     Eigenvalues ---    0.37230   0.39646
 RFO step:  Lambda=-4.60659808D-04 EMin= 2.36824062D-03
 Quartic linear search produced a step of  0.11013.
 Iteration  1 RMS(Cart)=  0.00884555 RMS(Int)=  0.00012571
 Iteration  2 RMS(Cart)=  0.00011357 RMS(Int)=  0.00005508
 Iteration  3 RMS(Cart)=  0.00000001 RMS(Int)=  0.00005508
 ITry= 1 IFail=0 DXMaxC= 2.25D-02 DCOld= 1.00D+10 DXMaxT= 5.05D-01 DXLimC= 3.00D+00 Rises=F
 Variable       Old X    -DE/DX   Delta X   Delta X   Delta X     New X
                                 (Linear)    (Quad)   (Total)
    R1        2.07870   0.00110   0.00624  -0.00100   0.00525   2.08395
    R2        2.07870   0.00110   0.00624  -0.00100   0.00525   2.08395
    R3        2.07884   0.00027   0.00626  -0.00348   0.00278   2.08162
    R4        2.89753  -0.00505  -0.00139  -0.01869  -0.02008   2.87744
    R5        2.08074   0.00122   0.00647  -0.00080   0.00567   2.08641
    R6        2.08074   0.00122   0.00647  -0.00080   0.00567   2.08641
    R7        2.89753  -0.00505  -0.00139  -0.01869  -0.02008   2.87744
    R8        2.07870   0.00110   0.00624  -0.00100   0.00525   2.08395
    R9        2.07884   0.00027   0.00626  -0.00348   0.00278   2.08162
   R10        2.07870   0.00110   0.00624  -0.00100   0.00525   2.08395
    A1        1.88849  -0.00176  -0.00244  -0.01047  -0.01300   1.87550
    A2        1.88891  -0.00120  -0.00239  -0.00682  -0.00928   1.87963
    A3        1.92568   0.00173   0.00166   0.01097   0.01255   1.93823
    A4        1.88891  -0.00120  -0.00239  -0.00682  -0.00928   1.87963
    A5        1.92568   0.00173   0.00166   0.01097   0.01255   1.93823
    A6        1.94465   0.00052   0.00375   0.00116   0.00484   1.94949
    A7        1.90664   0.00005  -0.00044   0.00401   0.00347   1.91011
    A8        1.90664   0.00005  -0.00044   0.00402   0.00347   1.91011
    A9        1.95920   0.00074   0.00535   0.00657   0.01177   1.97096
   A10        1.87624  -0.00104  -0.00379  -0.02404  -0.02782   1.84842
   A11        1.90664   0.00005  -0.00044   0.00401   0.00347   1.91011
   A12        1.90664   0.00005  -0.00044   0.00402   0.00347   1.91011
   A13        1.92568   0.00173   0.00166   0.01097   0.01255   1.93823
   A14        1.94465   0.00052   0.00375   0.00116   0.00484   1.94949
   A15        1.92568   0.00173   0.00166   0.01097   0.01255   1.93823
   A16        1.88891  -0.00120  -0.00239  -0.00682  -0.00928   1.87963
   A17        1.88849  -0.00176  -0.00244  -0.01047  -0.01300   1.87550
   A18        1.88891  -0.00120  -0.00239  -0.00682  -0.00928   1.87963
    D1       -3.12261   0.00061   0.00209   0.01263   0.01475  -3.10786
    D2       -1.07471  -0.00059  -0.00303  -0.01171  -0.01476  -1.08947
    D3        1.04293   0.00001  -0.00047   0.00046   0.00000   1.04292
    D4        1.07470   0.00059   0.00303   0.01169   0.01473   1.08944
    D5        3.12260  -0.00061  -0.00209  -0.01266  -0.01477   3.10783
    D6       -1.04295  -0.00001   0.00047  -0.00048  -0.00002  -1.04296
    D7       -1.02395   0.00060   0.00256   0.01216   0.01474  -1.00921
    D8        1.02394  -0.00060  -0.00256  -0.01219  -0.01477   1.00918
    D9        3.14158   0.00000   0.00000  -0.00001  -0.00001   3.14157
   D10        1.04278   0.00001  -0.00047   0.00064   0.00018   1.04297
   D11        3.14144   0.00000   0.00000   0.00017   0.00018  -3.14157
   D12       -1.04309  -0.00001   0.00047  -0.00030   0.00017  -1.04292
   D13       -1.07487  -0.00059  -0.00303  -0.01153  -0.01457  -1.08944
   D14        1.02379  -0.00060  -0.00256  -0.01200  -0.01458   1.00921
   D15        3.12245  -0.00061  -0.00209  -0.01247  -0.01458   3.10786
   D16       -3.12276   0.00061   0.00209   0.01282   0.01494  -3.10782
   D17       -1.02411   0.00060   0.00256   0.01235   0.01493  -1.00918
   D18        1.07455   0.00059   0.00303   0.01188   0.01492   1.08947
         Item               Value     Threshold  Converged?
 Maximum Force            0.005052     0.000450     NO 
 RMS     Force            0.001395     0.000300     NO 
 Maximum Displacement     0.022516     0.001800     NO 
 RMS     Displacement     0.008812     0.001200     NO 
 Predicted change in Energy=-2.723428D-04
 Lowest energy point so far.  Saving SCF results.
 GradGradGradGradGradGradGradGradGradGradGradGradGradGradGradGradGradGrad

 Leave Link  103 at Mon May  2 15:49:17 2016, MaxMem=   536870912 cpu:         0.1
 (Enter /usr/local/research/Gaussian09/g09-revD.01/g09/l202.exe)
                          Input orientation:                          
 ---------------------------------------------------------------------
 Center     Atomic      Atomic             Coordinates (Angstroms)
 Number     Number       Type             X           Y           Z
 ---------------------------------------------------------------------
      1          6           0       -2.548201    1.594617    0.004450
      2          1           0       -2.208175    0.546244   -0.033149
      3          1           0       -2.208154    2.086153   -0.922306
      4          1           0       -3.649705    1.589845   -0.003840
      5          6           0       -1.997565    2.304481    1.233857
      6          1           0       -2.381573    3.339203    1.263542
      7          1           0       -2.381624    1.812936    2.144832
      8          6           0       -0.475579    2.327400    1.273644
      9          1           0       -0.063962    2.844242    0.390716
     10          1           0       -0.099380    2.845074    2.170243
     11          1           0       -0.064013    1.304320    1.279850
 ---------------------------------------------------------------------
                    Distance matrix (angstroms):
                    1          2          3          4          5
     1  C    0.000000
     2  H    1.102777   0.000000
     3  H    1.102777   1.778179   0.000000
     4  H    1.101546   1.779880   1.779880   0.000000
     5  C    1.522678   2.177397   2.177396   2.184529   0.000000
     6  H    2.157929   3.084168   2.525498   2.504929   1.104080
     7  H    2.157927   2.525509   3.084165   2.504914   1.104080
     8  C    2.538422   2.807510   2.807527   3.500147   1.522678
     9  H    2.807528   3.171452   2.626078   3.819260   2.177395
    10  H    3.500147   3.819237   3.819260   4.348224   2.184529
    11  H    2.807510   2.626039   3.171450   3.819238   2.177397
                    6          7          8          9         10
     6  H    0.000000
     7  H    1.762431   0.000000
     8  C    2.157929   2.157927   0.000000
     9  H    2.525496   3.084165   1.102777   0.000000
    10  H    2.504930   2.504913   1.101546   1.779880   0.000000
    11  H    3.084168   2.525510   1.102777   1.778179   1.779880
                   11
    11  H    0.000000
 Stoichiometry    C3H8
 Framework group  C1[X(C3H8)]
 Deg. of freedom    27
 Full point group                 C1      NOp   1
 RotChk:  IX=2 Diff= 6.03D-05
 Largest Abelian subgroup         C1      NOp   1
 Largest concise Abelian subgroup C1      NOp   1
                         Standard orientation:                         
 ---------------------------------------------------------------------
 Center     Atomic      Atomic             Coordinates (Angstroms)
 Number     Number       Type             X           Y           Z
 ---------------------------------------------------------------------
      1          6           0       -1.269211   -0.258179    0.000000
      2          1           0       -1.313019   -0.909129    0.889078
      3          1           0       -1.313039   -0.909098   -0.889100
      4          1           0       -2.174112    0.369960    0.000021
      5          6           0        0.000000    0.583042    0.000000
      6          1           0        0.000000    1.248216   -0.881213
      7          1           0        0.000000    1.248210    0.881218
      8          6           0        1.269211   -0.258179    0.000000
      9          1           0        1.313039   -0.909096   -0.889102
     10          1           0        2.174112    0.369960    0.000022
     11          1           0        1.313019   -0.909131    0.889077
 ---------------------------------------------------------------------
 Rotational constants (GHZ):     29.4244472      8.4383046      7.4801429
 Leave Link  202 at Mon May  2 15:49:17 2016, MaxMem=   536870912 cpu:         0.0
 (Enter /usr/local/research/Gaussian09/g09-revD.01/g09/l301.exe)
 Standard basis: def2SVP (5D, 7F)
 Ernie: Thresh=  0.10000D-02 Tol=  0.10000D-05 Strict=F.
 There are    85 symmetry adapted cartesian basis functions of A   symmetry.
 There are    82 symmetry adapted basis functions of A   symmetry.
    82 basis functions,   131 primitive gaussians,    85 cartesian basis functions
    13 alpha electrons       13 beta electrons
       nuclear repulsion energy        82.3896141844 Hartrees.
 IExCor= 1009 DFT=T Ex+Corr=PBE1PBE ExCW=0 ScaHFX=  0.250000
 ScaDFX=  0.750000  0.750000  1.000000  1.000000 ScalE2=  1.000000  1.000000
 IRadAn=      0 IRanWt=     -1 IRanGd=            0 ICorTp=0 IEmpDi=141
 NAtoms=   11 NActive=   11 NUniq=   11 SFac= 1.00D+00 NAtFMM=   60 NAOKFM=F Big=F
 Integral buffers will be    131072 words long.
 Raffenetti 2 integral format.
 Two-electron integral symmetry is turned on.
 R6Disp:  Grimme-D3(BJ) Dispersion energy=       -0.0049556849 Hartrees.
 Nuclear repulsion after empirical dispersion term =       82.3846584996 Hartrees.
 Leave Link  301 at Mon May  2 15:49:17 2016, MaxMem=   536870912 cpu:         0.3
 (Enter /usr/local/research/Gaussian09/g09-revD.01/g09/l302.exe)
 NPDir=0 NMtPBC=     1 NCelOv=     1 NCel=       1 NClECP=     1 NCelD=      1
         NCelK=      1 NCelE2=     1 NClLst=     1 CellRange=     0.0.
 One-electron integrals computed using PRISM.
   1 Symmetry operations used in ECPInt.
 ECPInt:  NShTT=     903 NPrTT=    2989 LenC2=     904 LenP2D=    2737.
 LDataN:  DoStor=T MaxTD1= 4 Len=   56
 NBasis=    82 RedAO= T EigKep=  2.96D-03  NBF=    82
 NBsUse=    82 1.00D-06 EigRej= -1.00D+00 NBFU=    82
 Precomputing XC quadrature grid using
 IXCGrd= 4 IRadAn=           0 IRanWt=          -1 IRanGd=           0 AccXCQ= 0.00D+00.
 Generated NRdTot=       0 NPtTot=           0 NUsed=           0 NTot=          32
 NSgBfM=    85    85    85    85    85 MxSgAt=    11 MxSgA2=    11.
 Leave Link  302 at Mon May  2 15:49:17 2016, MaxMem=   536870912 cpu:         1.0
 (Enter /usr/local/research/Gaussian09/g09-revD.01/g09/l303.exe)
 DipDrv:  MaxL=1.
 Leave Link  303 at Mon May  2 15:49:17 2016, MaxMem=   536870912 cpu:         0.1
 (Enter /usr/local/research/Gaussian09/g09-revD.01/g09/l401.exe)
 Initial guess from the checkpoint file:  "propane.chk"
 B after Tr=     0.000000    0.000000    0.000000
         Rot=    1.000000   -0.000017    0.000004    0.000000 Ang=   0.00 deg.
 Guess basis will be translated and rotated to current coordinates.
 JPrj=2 DoOrth=T DoCkMO=T.
 Generating alternative initial guess.
 ExpMin= 1.22D-01 ExpMax= 1.24D+03 ExpMxC= 1.86D+02 IAcc=1 IRadAn=         1 AccDes= 0.00D+00
 Harris functional with IExCor= 1009 and IRadAn=       1 diagonalized for initial guess.
 HarFok:  IExCor= 1009 AccDes= 0.00D+00 IRadAn=         1 IDoV= 1 UseB2=F ITyADJ=14
 ICtDFT=  3500011 ScaDFX=  1.000000  1.000000  1.000000  1.000000
 FoFCou: FMM=F IPFlag=           0 FMFlag=      100000 FMFlg1=           0
         NFxFlg=           0 DoJE=T BraDBF=F KetDBF=T FulRan=T
         wScrn=  0.000000 ICntrl=     500 IOpCl=  0 I1Cent=   200000004 NGrid=           0
         NMat0=    1 NMatS0=      1 NMatT0=    0 NMatD0=    1 NMtDS0=    0 NMtDT0=    0
 Petite list used in FoFCou.
 Harris En= -118.998457555784    
 Leave Link  401 at Mon May  2 15:49:17 2016, MaxMem=   536870912 cpu:         1.7
 (Enter /usr/local/research/Gaussian09/g09-revD.01/g09/l502.exe)
 Closed shell SCF:
 Using DIIS extrapolation, IDIIS=  1040.
 Integral symmetry usage will be decided dynamically.
 Keep R1 ints in memory in canonical form, NReq=6740007.
 IVT=       41391 IEndB=       41391 NGot=   536870912 MDV=   531037616
 LenX=   531037616 LenY=   531029950
 Requested convergence on RMS density matrix=1.00D-08 within 128 cycles.
 Requested convergence on MAX density matrix=1.00D-06.
 Requested convergence on             energy=1.00D-06.
 No special actions if energy rises.
 FoFCou: FMM=F IPFlag=           0 FMFlag=           0 FMFlg1=           0
         NFxFlg=           0 DoJE=F BraDBF=F KetDBF=F FulRan=T
         wScrn=  0.000000 ICntrl=     600 IOpCl=  0 I1Cent=           0 NGrid=           0
         NMat0=    1 NMatS0=   3403 NMatT0=    0 NMatD0=    1 NMtDS0=    0 NMtDT0=    0
 Symmetry not used in FoFCou.
 Integral accuracy reduced to 1.0D-05 until final iterations.

 Cycle   1  Pass 0  IDiag  1:
 E= -118.906447459597    
 DIIS: error= 7.77D-04 at cycle   1 NSaved=   1.
 NSaved= 1 IEnMin= 1 EnMin= -118.906447459597     IErMin= 1 ErrMin= 7.77D-04
 ErrMax= 7.77D-04  0.00D+00 EMaxC= 1.00D-01 BMatC= 7.57D-05 BMatP= 7.57D-05
 IDIUse=3 WtCom= 9.92D-01 WtEn= 7.77D-03
 Coeff-Com:  0.100D+01
 Coeff-En:   0.100D+01
 Coeff:      0.100D+01
 Gap=     0.642 Goal=   None    Shift=    0.000
 RMSDP=1.94D-04 MaxDP=2.10D-03              OVMax= 3.40D-03

 Cycle   2  Pass 0  IDiag  1:
 E= -118.906572618068     Delta-E=       -0.000125158471 Rises=F Damp=F
 DIIS: error= 1.65D-04 at cycle   2 NSaved=   2.
 NSaved= 2 IEnMin= 2 EnMin= -118.906572618068     IErMin= 2 ErrMin= 1.65D-04
 ErrMax= 1.65D-04  0.00D+00 EMaxC= 1.00D-01 BMatC= 3.34D-06 BMatP= 7.57D-05
 IDIUse=3 WtCom= 9.98D-01 WtEn= 1.65D-03
 Coeff-Com:  0.147D-02 0.999D+00
 Coeff-En:   0.000D+00 0.100D+01
 Coeff:      0.147D-02 0.999D+00
 Gap=     0.403 Goal=   None    Shift=    0.000
 RMSDP=3.52D-05 MaxDP=9.08D-04 DE=-1.25D-04 OVMax= 9.15D-04

 Cycle   3  Pass 0  IDiag  1:
 E= -118.906573207605     Delta-E=       -0.000000589537 Rises=F Damp=F
 DIIS: error= 2.03D-04 at cycle   3 NSaved=   3.
 NSaved= 3 IEnMin= 3 EnMin= -118.906573207605     IErMin= 2 ErrMin= 1.65D-04
 ErrMax= 2.03D-04  0.00D+00 EMaxC= 1.00D-01 BMatC= 3.02D-06 BMatP= 3.34D-06
 IDIUse=3 WtCom= 9.98D-01 WtEn= 2.03D-03
 Coeff-Com: -0.396D-01 0.507D+00 0.532D+00
 Coeff-En:   0.000D+00 0.447D+00 0.553D+00
 Coeff:     -0.395D-01 0.507D+00 0.532D+00
 Gap=     0.403 Goal=   None    Shift=    0.000
 RMSDP=1.97D-05 MaxDP=5.56D-04 DE=-5.90D-07 OVMax= 4.03D-04

 Cycle   4  Pass 0  IDiag  1:
 E= -118.906576201305     Delta-E=       -0.000002993700 Rises=F Damp=F
 DIIS: error= 2.04D-05 at cycle   4 NSaved=   4.
 NSaved= 4 IEnMin= 4 EnMin= -118.906576201305     IErMin= 4 ErrMin= 2.04D-05
 ErrMax= 2.04D-05  0.00D+00 EMaxC= 1.00D-01 BMatC= 2.60D-08 BMatP= 3.02D-06
 IDIUse=1 WtCom= 1.00D+00 WtEn= 0.00D+00
 Coeff-Com: -0.863D-02 0.953D-01 0.148D+00 0.765D+00
 Coeff:     -0.863D-02 0.953D-01 0.148D+00 0.765D+00
 Gap=     0.403 Goal=   None    Shift=    0.000
 RMSDP=2.40D-06 MaxDP=4.94D-05 DE=-2.99D-06 OVMax= 4.81D-05

 Initial convergence to 1.0D-05 achieved.  Increase integral accuracy.
 Cycle   5  Pass 1  IDiag  1:
 E= -118.906614014055     Delta-E=       -0.000037812749 Rises=F Damp=F
 DIIS: error= 1.12D-05 at cycle   1 NSaved=   1.
 NSaved= 1 IEnMin= 1 EnMin= -118.906614014055     IErMin= 1 ErrMin= 1.12D-05
 ErrMax= 1.12D-05  0.00D+00 EMaxC= 1.00D-01 BMatC= 9.11D-09 BMatP= 9.11D-09
 IDIUse=1 WtCom= 1.00D+00 WtEn= 0.00D+00
 Coeff-Com:  0.100D+01
 Coeff:      0.100D+01
 Gap=     0.403 Goal=   None    Shift=    0.000
 RMSDP=2.40D-06 MaxDP=4.94D-05 DE=-3.78D-05 OVMax= 5.20D-05

 Cycle   6  Pass 1  IDiag  1:
 E= -118.906614026796     Delta-E=       -0.000000012741 Rises=F Damp=F
 DIIS: error= 3.70D-06 at cycle   2 NSaved=   2.
 NSaved= 2 IEnMin= 2 EnMin= -118.906614026796     IErMin= 2 ErrMin= 3.70D-06
 ErrMax= 3.70D-06  0.00D+00 EMaxC= 1.00D-01 BMatC= 9.63D-10 BMatP= 9.11D-09
 IDIUse=1 WtCom= 1.00D+00 WtEn= 0.00D+00
 Coeff-Com:  0.130D+00 0.870D+00
 Coeff:      0.130D+00 0.870D+00
 Gap=     0.403 Goal=   None    Shift=    0.000
 RMSDP=7.70D-07 MaxDP=1.10D-05 DE=-1.27D-08 OVMax= 1.33D-05

 Cycle   7  Pass 1  IDiag  1:
 E= -118.906614027227     Delta-E=       -0.000000000431 Rises=F Damp=F
 DIIS: error= 2.77D-06 at cycle   3 NSaved=   3.
 NSaved= 3 IEnMin= 3 EnMin= -118.906614027227     IErMin= 3 ErrMin= 2.77D-06
 ErrMax= 2.77D-06  0.00D+00 EMaxC= 1.00D-01 BMatC= 6.01D-10 BMatP= 9.63D-10
 IDIUse=1 WtCom= 1.00D+00 WtEn= 0.00D+00
 Coeff-Com: -0.256D-01 0.439D+00 0.586D+00
 Coeff:     -0.256D-01 0.439D+00 0.586D+00
 Gap=     0.403 Goal=   None    Shift=    0.000
 RMSDP=2.89D-07 MaxDP=5.24D-06 DE=-4.31D-10 OVMax= 5.66D-06

 Cycle   8  Pass 1  IDiag  1:
 E= -118.906614027863     Delta-E=       -0.000000000637 Rises=F Damp=F
 DIIS: error= 3.27D-07 at cycle   4 NSaved=   4.
 NSaved= 4 IEnMin= 4 EnMin= -118.906614027863     IErMin= 4 ErrMin= 3.27D-07
 ErrMax= 3.27D-07  0.00D+00 EMaxC= 1.00D-01 BMatC= 6.15D-12 BMatP= 6.01D-10
 IDIUse=1 WtCom= 1.00D+00 WtEn= 0.00D+00
 Coeff-Com: -0.111D-01 0.121D+00 0.193D+00 0.697D+00
 Coeff:     -0.111D-01 0.121D+00 0.193D+00 0.697D+00
 Gap=     0.403 Goal=   None    Shift=    0.000
 RMSDP=3.92D-08 MaxDP=4.56D-07 DE=-6.37D-10 OVMax= 8.07D-07

 Cycle   9  Pass 1  IDiag  1:
 E= -118.906614027870     Delta-E=       -0.000000000007 Rises=F Damp=F
 DIIS: error= 4.56D-08 at cycle   5 NSaved=   5.
 NSaved= 5 IEnMin= 5 EnMin= -118.906614027870     IErMin= 5 ErrMin= 4.56D-08
 ErrMax= 4.56D-08  0.00D+00 EMaxC= 1.00D-01 BMatC= 2.42D-13 BMatP= 6.15D-12
 IDIUse=1 WtCom= 1.00D+00 WtEn= 0.00D+00
 Coeff-Com: -0.259D-02 0.235D-01 0.407D-01 0.215D+00 0.723D+00
 Coeff:     -0.259D-02 0.235D-01 0.407D-01 0.215D+00 0.723D+00
 Gap=     0.403 Goal=   None    Shift=    0.000
 RMSDP=7.31D-09 MaxDP=1.87D-07 DE=-6.65D-12 OVMax= 1.66D-07

 SCF Done:  E(RPBE1PBE) =  -118.906614028     A.U. after    9 cycles
            NFock=  9  Conv=0.73D-08     -V/T= 2.0133
 KE= 1.173463920130D+02 PE=-4.386204453282D+02 EE= 1.199827807878D+02
 Leave Link  502 at Mon May  2 15:49:21 2016, MaxMem=   536870912 cpu:        13.8
 (Enter /usr/local/research/Gaussian09/g09-revD.01/g09/l701.exe)
 Compute integral first derivatives.
 ... and contract with generalized density number  0.
 R6Disp: Adding Grimme-D3(BJ) dispersion energy 1st derivatives to the gradient.
   1 Symmetry operations used in ECPInt.
 ECPInt:  NShTT=     903 NPrTT=    2989 LenC2=     904 LenP2D=    2737.
 LDataN:  DoStor=T MaxTD1= 5 Len=  102
 Leave Link  701 at Mon May  2 15:49:21 2016, MaxMem=   536870912 cpu:         0.8
 (Enter /usr/local/research/Gaussian09/g09-revD.01/g09/l702.exe)
 L702 exits ... SP integral derivatives will be done elsewhere.
 Leave Link  702 at Mon May  2 15:49:21 2016, MaxMem=   536870912 cpu:         0.1
 (Enter /usr/local/research/Gaussian09/g09-revD.01/g09/l703.exe)
 Compute integral first derivatives, UseDBF=F ICtDFT=           0.
 Integral derivatives from FoFJK, PRISM(SPDF).
 Calling FoFJK, ICntrl=      2127 FMM=F ISym2X=0 I1Cent= 0 IOpClX= 0 NMat=1 NMatS=1 NMatT=0.
 FoFJK:  IHMeth= 1 ICntrl=    2127 DoSepK=F KAlg= 0 I1Cent=   0 FoldK=F
 IRaf=         0 NMat=   1 IRICut=       1 DoRegI=T DoRafI=F ISym2E= 0.
 FoFCou: FMM=F IPFlag=           0 FMFlag=      100000 FMFlg1=         800
         NFxFlg=           0 DoJE=F BraDBF=F KetDBF=F FulRan=T
         wScrn=  0.000000 ICntrl=    2127 IOpCl=  0 I1Cent=           0 NGrid=           0
         NMat0=    1 NMatS0=      1 NMatT0=    0 NMatD0=    1 NMtDS0=    0 NMtDT0=    0
 Symmetry not used in FoFCou.
 Leave Link  703 at Mon May  2 15:49:23 2016, MaxMem=   536870912 cpu:         6.2
 (Enter /usr/local/research/Gaussian09/g09-revD.01/g09/l716.exe)
 Dipole        =-1.13622445D-10 2.16204101D-02 2.03014691D-07
 ***** Axes restored to original set *****
 -------------------------------------------------------------------
 Center     Atomic                   Forces (Hartrees/Bohr)
 Number     Number              X              Y              Z
 -------------------------------------------------------------------
      1        6          -0.000027419    0.000540842    0.000936008
      2        1          -0.000250800    0.000365430   -0.000311199
      3        1          -0.000250790   -0.000452373    0.000160690
      4        1           0.000497549   -0.000127850   -0.000221695
      5        6           0.000759817   -0.000538218   -0.000930050
      6        1          -0.000062374   -0.000306641    0.000278952
      7        1          -0.000062428    0.000394930   -0.000126122
      8        6          -0.001010060    0.000193771    0.000334078
      9        1           0.000165663   -0.000305227    0.000415782
     10        1           0.000075425   -0.000277136   -0.000480162
     11        1           0.000165416    0.000512472   -0.000056282
 -------------------------------------------------------------------
 Cartesian Forces:  Max     0.001010060 RMS     0.000434205
 Leave Link  716 at Mon May  2 15:49:23 2016, MaxMem=   536870912 cpu:         0.1
 (Enter /usr/local/research/Gaussian09/g09-revD.01/g09/l103.exe)

 GradGradGradGradGradGradGradGradGradGradGradGradGradGradGradGradGradGrad
 Berny optimization.
[...]
     33  0.784238D-04 -0.795372D-03  0.194190D-02 -0.465533D-01 -0.101558D-01
               26            27            28            29            30 
     26  0.110283D+00
     27 -0.112297D+00  0.235435D+00
     28  0.650135D-02  0.929955D-02  0.822488D-01
     29  0.745164D-02  0.130738D-01  0.463838D-01  0.111029D+00
     30 -0.127453D-01 -0.178476D-01  0.803308D-01  0.115830D+00  0.244749D+00
     31 -0.112845D-01 -0.767138D-03  0.305350D-02 -0.102424D-01  0.966662D-03
     32 -0.119003D-01 -0.175510D-02  0.480350D-02 -0.116672D-01  0.203827D-02
     33  0.235040D-01  0.652962D-03  0.102787D-01 -0.237815D-01  0.127172D-02
               31            32            33 
     31  0.897851D-01
     32 -0.100027D+00  0.301406D+00
     33  0.576377D-03 -0.198663D-02  0.443187D-01
 FormGI is forming the generalized inverse of G from B-inverse, IUseBI=4.
 Leave Link  716 at Mon May  2 15:50:14 2016, MaxMem=   536870912 cpu:         0.4
 (Enter /usr/local/research/Gaussian09/g09-revD.01/g09/l103.exe)

 GradGradGradGradGradGradGradGradGradGradGradGradGradGradGradGradGradGrad
 Berny optimization.
 Red2BG is reusing G-inverse.
 Internal  Forces:  Max     0.000122637 RMS     0.000049951
 Search for a local minimum.
 Step number   1 out of a maximum of    2
 All quantities printed in internal units (Hartrees-Bohrs-Radians)
 Second derivative matrix not updated -- analytic derivatives used.
 ITU=  0
     Eigenvalues ---    0.00242   0.00289   0.03482   0.03829   0.04346
     Eigenvalues ---    0.04405   0.04428   0.04472   0.07110   0.10230
     Eigenvalues ---    0.11736   0.12086   0.12683   0.14112   0.14809
     Eigenvalues ---    0.16135   0.21449   0.30905   0.31922   0.33332
     Eigenvalues ---    0.34054   0.34057   0.34152   0.34192   0.34391
     Eigenvalues ---    0.34609   0.34772
 Angle between quadratic step and forces=  33.87 degrees.
 Linear search not attempted -- first point.
 Iteration  1 RMS(Cart)=  0.00038282 RMS(Int)=  0.00000011
 Iteration  2 RMS(Cart)=  0.00000012 RMS(Int)=  0.00000003
 ITry= 1 IFail=0 DXMaxC= 1.40D-03 DCOld= 1.00D+10 DXMaxT= 3.00D-01 DXLimC= 3.00D+00 Rises=F
 Variable       Old X    -DE/DX   Delta X   Delta X   Delta X     New X
                                 (Linear)    (Quad)   (Total)
    R1        2.08322  -0.00009   0.00000  -0.00025  -0.00025   2.08297
    R2        2.08322  -0.00009   0.00000  -0.00025  -0.00025   2.08297
    R3        2.08060  -0.00012   0.00000  -0.00033  -0.00033   2.08027
    R4        2.87458  -0.00009   0.00000  -0.00025  -0.00025   2.87433
    R5        2.08619  -0.00009   0.00000  -0.00027  -0.00027   2.08591
    R6        2.08619  -0.00009   0.00000  -0.00027  -0.00027   2.08591
    R7        2.87458  -0.00009   0.00000  -0.00025  -0.00025   2.87433
    R8        2.08322  -0.00009   0.00000  -0.00025  -0.00025   2.08297
    R9        2.08060  -0.00012   0.00000  -0.00033  -0.00033   2.08027
   R10        2.08322  -0.00009   0.00000  -0.00025  -0.00025   2.08297
    A1        1.87196  -0.00003   0.00000  -0.00009  -0.00009   1.87187
    A2        1.87728   0.00001   0.00000   0.00002   0.00002   1.87730
    A3        1.94101   0.00004   0.00000   0.00031   0.00031   1.94133
    A4        1.87728   0.00001   0.00000   0.00002   0.00002   1.87730
    A5        1.94101   0.00004   0.00000   0.00031   0.00031   1.94133
    A6        1.95165  -0.00008   0.00000  -0.00058  -0.00058   1.95107
    A7        1.91019   0.00000   0.00000  -0.00008  -0.00008   1.91011
    A8        1.91019   0.00000   0.00000  -0.00008  -0.00008   1.91011
    A9        1.97553  -0.00002   0.00000   0.00008   0.00008   1.97561
   A10        1.84283   0.00001   0.00000   0.00027   0.00027   1.84310
   A11        1.91019   0.00000   0.00000  -0.00008  -0.00008   1.91011
   A12        1.91019   0.00000   0.00000  -0.00008  -0.00008   1.91011
   A13        1.94101   0.00004   0.00000   0.00031   0.00031   1.94133
   A14        1.95165  -0.00008   0.00000  -0.00058  -0.00058   1.95107
   A15        1.94101   0.00004   0.00000   0.00031   0.00031   1.94133
   A16        1.87728   0.00001   0.00000   0.00002   0.00002   1.87730
   A17        1.87196  -0.00003   0.00000  -0.00009  -0.00009   1.87187
   A18        1.87728   0.00001   0.00000   0.00002   0.00002   1.87730
    D1       -3.10492   0.00000   0.00000   0.00003   0.00003  -3.10489
    D2       -1.09313   0.00001   0.00000   0.00026   0.00026  -1.09287
    D3        1.04257   0.00001   0.00000   0.00014   0.00014   1.04271
    D4        1.09315  -0.00001   0.00000  -0.00028  -0.00028   1.09287
    D5        3.10493   0.00000   0.00000  -0.00005  -0.00005   3.10489
    D6       -1.04255  -0.00001   0.00000  -0.00016  -0.00016  -1.04271
    D7       -1.00588  -0.00001   0.00000  -0.00012  -0.00012  -1.00601
    D8        1.00590   0.00001   0.00000   0.00011   0.00011   1.00601
    D9       -3.14158   0.00000   0.00000  -0.00001  -0.00001  -3.14159
   D10        1.04254   0.00001   0.00000   0.00017   0.00017   1.04271
   D11        3.14157   0.00000   0.00000   0.00002   0.00002   3.14159
   D12       -1.04258  -0.00001   0.00000  -0.00013  -0.00013  -1.04271
   D13       -1.09316   0.00001   0.00000   0.00028   0.00028  -1.09287
   D14        1.00588   0.00001   0.00000   0.00013   0.00013   1.00601
   D15        3.10491   0.00000   0.00000  -0.00002  -0.00002   3.10489
   D16       -3.10494   0.00000   0.00000   0.00005   0.00005  -3.10489
   D17       -1.00591  -0.00001   0.00000  -0.00010  -0.00010  -1.00601
   D18        1.09313  -0.00001   0.00000  -0.00025  -0.00025   1.09287
         Item               Value     Threshold  Converged?
 Maximum Force            0.000123     0.000450     YES
 RMS     Force            0.000050     0.000300     YES
 Maximum Displacement     0.001396     0.001800     YES
 RMS     Displacement     0.000383     0.001200     YES
 Predicted change in Energy=-2.165062D-07
 Optimization completed.
    -- Stationary point found.
                           ----------------------------
                           !   Optimized Parameters   !
                           ! (Angstroms and Degrees)  !
 --------------------------                            --------------------------
 ! Name  Definition              Value          Derivative Info.                !
 --------------------------------------------------------------------------------
 ! R1    R(1,2)                  1.1024         -DE/DX =   -0.0001              !
 ! R2    R(1,3)                  1.1024         -DE/DX =   -0.0001              !
 ! R3    R(1,4)                  1.101          -DE/DX =   -0.0001              !
 ! R4    R(1,5)                  1.5212         -DE/DX =   -0.0001              !
 ! R5    R(5,6)                  1.104          -DE/DX =   -0.0001              !
 ! R6    R(5,7)                  1.104          -DE/DX =   -0.0001              !
 ! R7    R(5,8)                  1.5212         -DE/DX =   -0.0001              !
 ! R8    R(8,9)                  1.1024         -DE/DX =   -0.0001              !
 ! R9    R(8,10)                 1.101          -DE/DX =   -0.0001              !
 ! R10   R(8,11)                 1.1024         -DE/DX =   -0.0001              !
 ! A1    A(2,1,3)              107.2553         -DE/DX =    0.0                 !
 ! A2    A(2,1,4)              107.56           -DE/DX =    0.0                 !
 ! A3    A(2,1,5)              111.2118         -DE/DX =    0.0                 !
 ! A4    A(3,1,4)              107.56           -DE/DX =    0.0                 !
 ! A5    A(3,1,5)              111.2119         -DE/DX =    0.0                 !
 ! A6    A(4,1,5)              111.8214         -DE/DX =   -0.0001              !
 ! A7    A(1,5,6)              109.4459         -DE/DX =    0.0                 !
 ! A8    A(1,5,7)              109.446          -DE/DX =    0.0                 !
 ! A9    A(1,5,8)              113.1897         -DE/DX =    0.0                 !
 ! A10   A(6,5,7)              105.5864         -DE/DX =    0.0                 !
 ! A11   A(6,5,8)              109.4459         -DE/DX =    0.0                 !
 ! A12   A(7,5,8)              109.446          -DE/DX =    0.0                 !
 ! A13   A(5,8,9)              111.2119         -DE/DX =    0.0                 !
 ! A14   A(5,8,10)             111.8214         -DE/DX =   -0.0001              !
 ! A15   A(5,8,11)             111.2118         -DE/DX =    0.0                 !
 ! A16   A(9,8,10)             107.56           -DE/DX =    0.0                 !
 ! A17   A(9,8,11)             107.2553         -DE/DX =    0.0                 !
 ! A18   A(10,8,11)            107.56           -DE/DX =    0.0                 !
 ! D1    D(2,1,5,6)           -177.8987         -DE/DX =    0.0                 !
 ! D2    D(2,1,5,7)            -62.632          -DE/DX =    0.0                 !
 ! D3    D(2,1,5,8)             59.7348         -DE/DX =    0.0                 !
 ! D4    D(3,1,5,6)             62.6329         -DE/DX =    0.0                 !
 ! D5    D(3,1,5,7)            177.8996         -DE/DX =    0.0                 !
 ! D6    D(3,1,5,8)            -59.7336         -DE/DX =    0.0                 !
 ! D7    D(4,1,5,6)            -57.6329         -DE/DX =    0.0                 !
 ! D8    D(4,1,5,7)             57.6338         -DE/DX =    0.0                 !
 ! D9    D(4,1,5,8)           -179.9994         -DE/DX =    0.0                 !
 ! D10   D(1,5,8,9)             59.7331         -DE/DX =    0.0                 !
 ! D11   D(1,5,8,10)           179.999          -DE/DX =    0.0                 !
 ! D12   D(1,5,8,11)           -59.7353         -DE/DX =    0.0                 !
 ! D13   D(6,5,8,9)            -62.6334         -DE/DX =    0.0                 !
 ! D14   D(6,5,8,10)            57.6325         -DE/DX =    0.0                 !
 ! D15   D(6,5,8,11)           177.8982         -DE/DX =    0.0                 !
 ! D16   D(7,5,8,9)           -177.9001         -DE/DX =    0.0                 !
 ! D17   D(7,5,8,10)           -57.6343         -DE/DX =    0.0                 !
 ! D18   D(7,5,8,11)            62.6315         -DE/DX =    0.0                 !
 --------------------------------------------------------------------------------
 GradGradGradGradGradGradGradGradGradGradGradGradGradGradGradGradGradGrad

 Leave Link  103 at Mon May  2 15:50:14 2016, MaxMem=   536870912 cpu:         0.0
 (Enter /usr/local/research/Gaussian09/g09-revD.01/g09/l9999.exe)
 1\1\GINC-HEISENBERG010\Freq\RPBE1PBE\def2SVP\C3H8\ROOT\02-May-2016\0\\
 #P Geom=AllCheck Guess=TCheck SCRF=Check GenChk RPBE1PBE/def2SVP Freq\
 \-- "Propane for torsion testing" --\\0,1\C,-2.5493173639,1.594843949,
 0.0048336053\H,-2.2119411248,0.5461501835,-0.0362419706\H,-2.211886991
 6,2.0835236896,-0.9239298531\H,-3.6502827697,1.5901596588,-0.003346288
 5\C,-1.9959904341,2.3033573754,1.2319343016\H,-2.3813826611,3.33735870
 46,1.2642977454\H,-2.3814223992,1.8144696447,2.1436166575\C,-0.4756275
 541,2.3280031716,1.274682181\H,-0.0601497734,2.8442698084,0.3937078726
 \H,-0.099739132,2.8454717987,2.1708673137\H,-0.0601900544,1.3069082565
 ,1.2814164563\\Version=EM64L-G09RevD.01\State=1-A\HF=-118.9066265\RMSD
 =1.142e-09\RMSF=5.605e-05\ZeroPoint=0.103541\Thermal=0.1080497\Dipole=
 -0.0123637,0.0087435,0.0151421\DipoleDeriv=0.0030895,-0.0203435,-0.035
 2351,-0.0094216,0.0651395,-0.0156158,-0.0163219,-0.0156166,0.0471081,0
 .043675,0.0764817,-0.000616,0.0408042,-0.1266359,-0.0393136,-0.0213587
 ,-0.0056978,0.0302162,0.0436679,-0.038772,0.0659386,-0.0389013,0.01050
 72,0.0734596,0.0246678,0.0398464,-0.1069192,-0.1541406,-0.0227328,-0.0
 393837,-0.0081824,0.0626455,-0.0224785,-0.0141849,-0.0224799,0.0366919
 ,0.1384378,0.0128304,0.0222215,0.0128294,0.1145027,0.0033435,0.022222,
 0.0033422,0.1183632,-0.029342,0.0576878,-0.0140667,0.0702664,-0.141651
 4,-0.0431012,-0.0213289,-0.0225602,0.0302957,-0.0293474,-0.0410215,0.0
 429339,-0.0536003,0.0157544,0.0682963,0.0501961,0.047755,-0.127103,0.0
 154927,-0.0116156,-0.020119,-0.0225368,0.0620381,-0.0209881,-0.0390327
 ,-0.0209865,0.0378062,-0.0080244,-0.021616,0.0357926,-0.037082,0.02367
 82,0.0751059,0.0860679,0.0832509,-0.0683978,-0.0154881,-0.0327,-0.0566
 366,-0.047251,0.0279764,-0.0825215,-0.081835,-0.0825205,-0.0672914,-0.
 0080203,0.0418014,-0.0008294,0.0930755,-0.1139547,0.0038134,0.0109081,
 -0.0043331,0.0692302\Polar=36.8281278,0.9251792,33.5711127,1.6024824,1
 .1250527,34.8700763\PG=C01 [X(C3H8)]\NImag=0\\0.57761497,-0.01326404,0
 .55691437,-0.02297181,-0.03051508,0.52168345,-0.07319676,0.08137620,0.
 00208639,0.07385099,0.08064303,-0.29096005,-0.00508780,-0.08693463,0.3
 1265617,0.00175117,-0.00423862,-0.04590614,-0.00047825,0.00911010,0.04
 900313,-0.07320517,-0.03888007,0.07153072,0.00258014,0.00459986,-0.009
 58641,0.07386026,-0.03880385,-0.10310991,0.10418857,-0.01060359,-0.011
 68509,0.02430880,0.04305202,0.10700412,0.07072804,0.10333947,-0.233747
 81,-0.00080881,-0.00181386,0.00129948,-0.07554156,-0.10959257,0.254645
 83,-0.32218429,0.00097133,0.00166535,-0.00756877,-0.00150956,0.0002613
 1,-0.00757027,0.00098141,-0.00117705,0.34444798,0.00189905,-0.04590362
 ,-0.00002489,0.02978327,0.00157999,-0.00051334,-0.01472185,-0.00048310
 ,-0.00099309,0.00001973,0.04546877,0.00327198,-0.00002494,-0.04593228,
 0.00019312,0.00019863,-0.00135318,0.02589047,-0.00170601,0.00071140,0.
 00005249,0.00228853,0.04811080,-0.09595205,-0.02305591,-0.03993143,0.0
 0290487,0.00483118,0.00894782,0.00290543,0.00533481,0.00865871,-0.0085
 2002,-0.01601422,-0.02773520,0.50613545,-0.02141214,-0.11134388,-0.053
 64962,-0.01206951,-0.01393081,-0.02714930,0.00620676,0.00751487,0.0125
 2285,0.00127363,-0.00087928,0.00179527,-0.01697554,0.58335369,-0.03708
 427,-0.05364963,-0.17328456,0.00019980,0.00014338,-0.00092740,-0.01035
 310,-0.01476880,-0.02237365,0.00220541,0.00179426,0.00119179,-0.029404
 17,-0.03072234,0.54788316,0.00361551,-0.01273089,-0.00044412,-0.000188
 74,-0.00138367,-0.00255047,0.00018294,0.00063871,0.00029746,0.00047263
 ,-0.00018682,0.00054736,-0.07709629,0.08447199,0.00266132,0.08705140,0
 .00434982,-0.01363992,0.00009638,-0.00153747,0.00010233,-0.00295017,0.
 00012615,0.00095076,-0.00015923,-0.00042000,0.00030159,0.00014519,0.08
 533853,-0.28095492,-0.00347604,-0.09130662,0.30119582,0.00892230,-0.02
 684870,-0.00146941,-0.00216129,-0.00301946,-0.00421923,0.00069941,0.00
 026700,0.00097454,0.00005487,0.00064985,0.00099084,0.00216102,-0.00206
 096,-0.04794033,0.00026771,0.00692386,0.05049890,0.00361609,0.00597985
 ,-0.01124772,0.00018295,-0.00006165,0.00070187,-0.00018875,-0.00151705
 ,-0.00247345,0.00047264,0.00056744,0.00011189,-0.07710286,-0.03992881,
 0.07449568,0.00325919,0.00468806,-0.00934928,0.08705837,0.00555317,0.0
 0707134,-0.01489228,0.00054270,0.00092195,0.00025034,-0.00110312,-0.00
 055432,-0.00339851,0.00025746,0.00047429,0.00074957,-0.04079540,-0.103
 77781,0.10020836,-0.01044194,-0.01278366,0.02396589,0.04588210,0.10715
 711,0.00822892,0.01205199,-0.02218111,0.00045889,-0.00017588,0.0010034
 4,-0.00241213,-0.00332917,-0.00356257,-0.00033632,0.00024493,0.0008180
 5,0.07499600,0.09879320,-0.22511072,-0.00061383,-0.00074172,0.00062216
 ,-0.07895115,-0.10507827,0.24453024,-0.01705951,-0.00268049,-0.0046430
 2,0.00132991,0.00083242,0.00132938,0.00133000,0.00073514,0.00138565,0.
 00065956,-0.00044492,-0.00077046,-0.22017548,-0.00109150,-0.00189658,-
 0.01291543,-0.00148892,-0.00018578,-0.01291645,0.00058408,-0.00138272,
 0.49556394,-0.01816249,-0.00076113,-0.00090073,-0.00127172,0.00083930,
 0.00028698,0.00103102,0.00046825,0.00063327,-0.00172326,-0.00121702,-0
 .00297906,0.00055236,-0.08028480,0.00014251,0.03175585,0.00209055,0.00
 075210,-0.01600659,-0.00039232,-0.00123059,0.00124378,0.57742941,-0.03
 145602,-0.00089997,-0.00180177,0.00045642,0.00084741,0.00099951,-0.000
 87333,0.00007284,0.00137053,-0.00298443,-0.00297900,-0.00465642,0.0009
 5053,0.00014261,-0.08012021,-0.00015188,0.00020328,-0.00066895,0.02742
 639,-0.00068252,0.00181511,0.00215061,0.00501538,0.58321944,0.00185430
 ,0.00025337,0.00144975,-0.00002491,-0.00000004,-0.00012389,0.00003995,
 0.00003069,-0.00106416,0.00030080,0.00040817,-0.00011489,-0.01243464,-
 0.01650139,0.02752907,0.00131428,0.00031831,0.00002055,-0.00685010,-0.
 00000709,-0.00062562,-0.08048835,-0.04594229,0.07782369,0.08979288,0.0
 0020680,-0.00005901,0.00045713,-0.00000373,-0.00007715,0.00011925,-0.0
 0033336,0.00004156,-0.00027239,0.00012810,0.00003033,-0.00026176,0.000
 72956,-0.00022443,-0.00087436,-0.00016995,0.00059136,-0.00071314,0.000
 16094,0.00125911,-0.00022780,-0.04644193,-0.10739566,0.10331152,0.0505
 0675,0.11028252,-0.00061151,-0.00066254,0.00137353,0.00002814,0.000007
 24,-0.00004056,0.00039257,0.00046557,0.00027341,0.00008053,-0.00004253
 ,0.00013863,-0.00092799,-0.00145107,0.00070573,0.00040848,-0.00024724,
 0.00020258,-0.00042237,-0.00055999,0.00128535,0.07887087,0.10346912,-0
 .22217885,-0.08635114,-0.11229722,0.23543478,-0.00695734,0.00090188,0.
 00156167,0.00009037,-0.00007998,0.00025287,0.00009038,0.00025899,0.000
 05714,-0.00081101,-0.00100628,-0.00174283,-0.00823088,-0.01606565,-0.0
 2782354,0.00115467,0.00047009,-0.00011037,0.00115459,-0.00033063,0.000
 35199,-0.07484706,-0.04183709,-0.07245596,0.00305395,0.00650135,0.0092
 9955,0.08224884,-0.00037642,0.00068743,0.00031930,0.00021186,0.0004215
 4,0.00025828,-0.00000364,-0.00004268,-0.00025742,0.00001544,0.00038473
 ,-0.00028581,0.00122254,-0.00095160,0.00166994,-0.00020072,0.00052614,
 0.00043526,-0.00020298,-0.00009128,-0.00013113,-0.04276481,-0.10774803
 ,-0.10713096,0.00595729,0.00745164,0.01307375,0.04638384,0.11102927,-0
 .00065232,0.00031932,0.00105602,0.00011808,0.00001054,-0.00004218,0.00
 024250,-0.00000970,0.00042206,0.00002664,-0.00028588,0.00005469,0.0021
 1686,0.00166916,0.00097497,-0.00035018,0.00022526,0.00008430,-0.000348
 91,0.00007889,0.00070163,-0.07406258,-0.10713086,-0.23142510,-0.008387
 51,-0.01274529,-0.01784756,0.08033076,0.11583028,0.24474943,0.00185424
 ,0.00112876,0.00094422,0.00003994,-0.00093694,-0.00050540,-0.00002492,
 -0.00010727,-0.00006197,0.00030075,-0.00030358,0.00029607,-0.01243354,
 0.03209216,-0.00052962,-0.00685016,-0.00053794,-0.00031914,0.00131435,
 -0.00014133,0.00028597,-0.08048114,0.09036043,-0.00088603,0.00344185,-
 0.01128452,-0.00076714,0.00305350,-0.01024239,0.00096666,0.08978513,-0
 .00063291,0.00110438,0.00000903,0.00050663,0.00013182,0.00051769,0.000
 02622,-0.00010447,-0.00000853,0.00000572,0.00024331,0.00008040,-0.0011
 6791,0.00147898,-0.00046728,-0.00044593,0.00161993,-0.00035170,0.00043
 871,0.00071560,-0.00017556,0.09151715,-0.28302856,0.00209941,0.0049762
 2,-0.01190028,-0.00175510,0.00480350,-0.01166717,0.00203827,-0.1000273
 8,0.30140647,-0.00012647,0.00112870,0.00021008,-0.00009248,-0.00022031
 ,0.00018313,0.00001084,0.00010348,-0.00001323,0.00015120,-0.00013885,-
 0.00007433,0.00016785,0.00011019,-0.00099879,-0.00007185,-0.00001958,0
 .00092460,0.00005702,-0.00064148,0.00007842,-0.00079537,0.00194190,-0.
 04655329,-0.01015585,0.02350405,0.00065296,0.01027872,-0.02378148,0.00
 127172,0.00057638,-0.00198663,0.04431873\\-0.00003277,0.00001458,0.000
 02461,0.00003390,-0.00007933,0.00001887,0.00003390,0.00005585,-0.00005
 946,-0.00012224,-0.00002311,-0.00004014,0.00007737,-0.00005524,-0.0000
 9446,-0.00004000,0.00007912,0.00001970,-0.00004015,-0.00002255,0.00007
 853,-0.00001605,0.00002050,0.00003484,0.00001094,0.00004771,-0.0000735
 5,0.00008442,0.00004999,0.00008639,0.00001067,-0.00008753,0.00000468\\
 \@


 IT IS THE GODS' CUSTOM TO BRING LOW ALL THINGS OF SURPASSING GREATNESS.
     -- HERODOTUS
 IT IS THE LOFTY PINE THAT BY THE STORM IS OFTENER TOSSED;
 TOWERS FALL WITH HEAVIER CRASH WHICH HIGHER SOAR.
     -- HORACE
 THE BIGGER THEY COME, THE HARDER THEY FALL.
     -- BOB FITZSIMONS HEAVYWEIGHT CHAMPION, 1897-1899
 Job cpu time:       0 days  0 hours  2 minutes 54.4 seconds.
 File lengths (MBytes):  RWF=     11 Int=      0 D2E=      0 Chk=      2 Scr=      1
 Normal termination of Gaussian 09 at Mon May  2 15:50:14 2016.
